 Entering Gaussian System, Link 0=/home/trusso/Gaussian/g16/g16
 Initial command:
 /home/trusso/Gaussian//g16/l1.exe "/home/trusso/Gaussian//scr/Gau-17027.inp" -scrdir="/home/trusso/Gaussian//scr/"
 Entering Link 1 = /home/trusso/Gaussian//g16/l1.exe PID=     17029.
  
 Copyright (c) 1988,1990,1992,1993,1995,1998,2003,2009,2016,
            Gaussian, Inc.  All Rights Reserved.
  
 This is part of the Gaussian(R) 16 program.  It is based on
 the Gaussian(R) 09 system (copyright 2009, Gaussian, Inc.),
 the Gaussian(R) 03 system (copyright 2003, Gaussian, Inc.),
 the Gaussian(R) 98 system (copyright 1998, Gaussian, Inc.),
 the Gaussian(R) 94 system (copyright 1995, Gaussian, Inc.),
 the Gaussian 92(TM) system (copyright 1992, Gaussian, Inc.),
 the Gaussian 90(TM) system (copyright 1990, Gaussian, Inc.),
 the Gaussian 88(TM) system (copyright 1988, Gaussian, Inc.),
 the Gaussian 86(TM) system (copyright 1986, Carnegie Mellon
 University), and the Gaussian 82(TM) system (copyright 1983,
 Carnegie Mellon University). Gaussian is a federally registered
 trademark of Gaussian, Inc.
  
 This software contains proprietary and confidential information,
 including trade secrets, belonging to Gaussian, Inc.
  
 This software is provided under written license and may be
 used, copied, transmitted, or stored only in accord with that
 written license.
  
 The following legend is applicable only to US Government
 contracts under FAR:
  
                    RESTRICTED RIGHTS LEGEND
  
 Use, reproduction and disclosure by the US Government is
 subject to restrictions as set forth in subparagraphs (a)
 and (c) of the Commercial Computer Software - Restricted
 Rights clause in FAR 52.227-19.
  
 Gaussian, Inc.
 340 Quinnipiac St., Bldg. 40, Wallingford CT 06492
  
  
 ---------------------------------------------------------------
 Warning -- This program may not be used in any manner that
 competes with the business of Gaussian, Inc. or will provide
 assistance to any competitor of Gaussian, Inc.  The licensee
 of this program is prohibited from giving any competitor of
 Gaussian, Inc. access to this program.  By using this program,
 the user acknowledges that Gaussian, Inc. is engaged in the
 business of creating and licensing software in the field of
 computational chemistry and represents and warrants to the
 licensee that it is not a competitor of Gaussian, Inc. and that
 it will not use this program in any manner prohibited above.
 ---------------------------------------------------------------
  

 Cite this work as:
 Gaussian 16, Revision A.03,
 M. J. Frisch, G. W. Trucks, H. B. Schlegel, G. E. Scuseria, 
 M. A. Robb, J. R. Cheeseman, G. Scalmani, V. Barone, 
 G. A. Petersson, H. Nakatsuji, X. Li, M. Caricato, A. V. Marenich, 
 J. Bloino, B. G. Janesko, R. Gomperts, B. Mennucci, H. P. Hratchian, 
 J. V. Ortiz, A. F. Izmaylov, J. L. Sonnenberg, D. Williams-Young, 
 F. Ding, F. Lipparini, F. Egidi, J. Goings, B. Peng, A. Petrone, 
 T. Henderson, D. Ranasinghe, V. G. Zakrzewski, J. Gao, N. Rega, 
 G. Zheng, W. Liang, M. Hada, M. Ehara, K. Toyota, R. Fukuda, 
 J. Hasegawa, M. Ishida, T. Nakajima, Y. Honda, O. Kitao, H. Nakai, 
 T. Vreven, K. Throssell, J. A. Montgomery, Jr., J. E. Peralta, 
 F. Ogliaro, M. J. Bearpark, J. J. Heyd, E. N. Brothers, K. N. Kudin, 
 V. N. Staroverov, T. A. Keith, R. Kobayashi, J. Normand, 
 K. Raghavachari, A. P. Rendell, J. C. Burant, S. S. Iyengar, 
 J. Tomasi, M. Cossi, J. M. Millam, M. Klene, C. Adamo, R. Cammi, 
 J. W. Ochterski, R. L. Martin, K. Morokuma, O. Farkas, 
 J. B. Foresman, and D. J. Fox, Gaussian, Inc., Wallingford CT, 2016.
 
 ******************************************
 Gaussian 16:  ES64L-G16RevA.03 25-Dec-2016
                 2-Mar-2025 
 ******************************************
 %chk=/home/trusso/Viol_R/E0/out/V_Em05.chk
 %nprocshared=24
 Will use up to   24 processors via shared memory.
 ----------------------------------------------------------------------
 # opt=calcall freq=raman field=x-5 CPHF=Rdfreq b3lyp/6-311g(d,p) nosym
 m cphf=grid=fine int=grid=ultrafine
 ----------------------------------------------------------------------
 1/10=4,18=20,19=15,26=4,38=1,83=1/1,3;
 2/9=110,12=2,15=1,17=6,18=5,40=1/2;
 3/5=4,6=6,7=101,11=2,14=1,15=-5,25=1,30=1,71=2,74=-5,75=-5,140=1/1,2,3;
 4//1;
 5/5=2,38=5/2;
 8/6=4,10=90,11=11/1;
 11/6=1,8=1,9=11,15=111,16=1,31=1/1,2,10;
 10/6=1,31=1,60=4/2;
 6/7=2,8=2,9=2,10=2,18=1,28=1/1;
 7/10=1,25=1,30=1/1,2,3,16;
 1/10=4,18=20,19=15,26=4/3(3);
 2/9=110,15=1/2;
 7/8=1,9=1,25=1,30=1,44=-1/16;
 99//99;
 2/9=110,15=1/2;
 3/5=4,6=6,7=101,11=2,14=1,15=-5,25=1,30=1,71=2,74=-5,75=-5,140=1/1,2,3;
 4/5=5,16=3,69=1/1;
 5/5=2,38=5/2;
 8/6=4,10=90,11=11/1;
 11/6=1,8=1,9=11,15=111,16=1,31=1/1,2,10;
 10/6=1,31=1,60=4/2;
 7/10=1,25=1,30=1/1,2,3,16;
 1/10=4,18=20,19=15,26=4/3(-8);
 2/9=110,15=1/2;
 6/7=2,8=2,9=2,10=2,18=1,19=2,28=1/1;
 7/8=1,9=1,25=1,30=1,44=-1/16;
 99//99;
 ----------------
 Titolo field=x-5
 ----------------
 Symbolic Z-matrix:
 Charge =  0 Multiplicity = 1
 C                    -5.52019   0.66087  -0.42947 
 C                    -4.94224   1.9052   -0.67918 
 C                    -4.73082  -0.4408   -0.08607 
 C                    -3.56153   2.08657  -0.5933 
 C                    -3.3623   -0.25254  -0.00138 
 C                    -2.74695   1.00204  -0.24727 
 C                    -1.31227   0.82433  -0.06172 
 N                    -2.38063  -1.1876    0.31844 
 C                    -1.11514  -0.63118   0.30342 
 O                    -0.08754  -1.23948   0.54289 
 C                    -0.233     1.6686   -0.14331 
 C                     1.14622   1.3499    0.09649 
 C                    -0.25967   3.14186  -0.4884 
 C                     1.89812   2.48365  -0.04902 
 O                    -1.16897   3.86374  -0.84128 
 N                     1.05894   3.56474  -0.34533 
 C                     3.32613   2.65639   0.07066 
 C                     4.25946   1.65887  -0.14045 
 C                     4.073     3.85045   0.41231 
 C                     5.44661   3.49485   0.38366 
 N                     5.52034   2.15241   0.04831 
 C                     3.7141    5.15691   0.77366 
 C                     6.45341   4.41028   0.6776 
 C                     6.07733   5.70412   1.00984 
 C                     4.71817   6.07181   1.06229 
 H                    -2.53596  -2.15883   0.53622 
 H                     1.36521   4.4449   -0.72849 
 H                     6.36915   1.62788  -0.07906 
 O                     4.32942   7.33999   1.40406 
 H                    -5.17728  -1.40942   0.10736 
 H                    -6.59507   0.54046  -0.50275 
 H                    -5.57244   2.74514  -0.9463 
 H                     1.50512   0.38263   0.39934 
 H                     5.10707   7.86808   1.60827 
 H                     6.83875   6.44265   1.24149 
 H                     7.50034   4.12937   0.65439 
 H                     2.68242   5.47153   0.86123 
 H                    -3.11441   3.04815  -0.79324 
 H                     4.09896   0.63448  -0.43667 
 
 Using perturbation frequencies:    0.000000    0.058042

 GradGradGradGradGradGradGradGradGradGradGradGradGradGradGradGradGradGrad
 Berny optimization.
 Initialization pass.
                           ----------------------------
                           !    Initial Parameters    !
                           ! (Angstroms and Degrees)  !
 --------------------------                            --------------------------
 ! Name  Definition              Value          Derivative Info.                !
 --------------------------------------------------------------------------------
 ! R1    R(1,2)                  1.3945         calculate D2E/DX2 analytically  !
 ! R2    R(1,3)                  1.3981         calculate D2E/DX2 analytically  !
 ! R3    R(1,31)                 1.0841         calculate D2E/DX2 analytically  !
 ! R4    R(2,4)                  1.3952         calculate D2E/DX2 analytically  !
 ! R5    R(2,32)                 1.0835         calculate D2E/DX2 analytically  !
 ! R6    R(3,5)                  1.384          calculate D2E/DX2 analytically  !
 ! R7    R(3,30)                 1.084          calculate D2E/DX2 analytically  !
 ! R8    R(4,6)                  1.3998         calculate D2E/DX2 analytically  !
 ! R9    R(4,38)                 1.0791         calculate D2E/DX2 analytically  !
 ! R10   R(5,6)                  1.4188         calculate D2E/DX2 analytically  !
 ! R11   R(5,8)                  1.3929         calculate D2E/DX2 analytically  !
 ! R12   R(6,7)                  1.4575         calculate D2E/DX2 analytically  !
 ! R13   R(7,9)                  1.5135         calculate D2E/DX2 analytically  !
 ! R14   R(7,11)                 1.3727         calculate D2E/DX2 analytically  !
 ! R15   R(8,9)                  1.3825         calculate D2E/DX2 analytically  !
 ! R16   R(8,26)                 1.0074         calculate D2E/DX2 analytically  !
 ! R17   R(9,10)                 1.2179         calculate D2E/DX2 analytically  !
 ! R18   R(11,12)                1.4357         calculate D2E/DX2 analytically  !
 ! R19   R(11,13)                1.5134         calculate D2E/DX2 analytically  !
 ! R20   R(12,14)                1.3682         calculate D2E/DX2 analytically  !
 ! R21   R(12,33)                1.0752         calculate D2E/DX2 analytically  !
 ! R22   R(13,15)                1.2135         calculate D2E/DX2 analytically  !
 ! R23   R(13,16)                1.3921         calculate D2E/DX2 analytically  !
 ! R24   R(14,16)                1.4003         calculate D2E/DX2 analytically  !
 ! R25   R(14,17)                1.4434         calculate D2E/DX2 analytically  !
 ! R26   R(16,27)                1.0076         calculate D2E/DX2 analytically  !
 ! R27   R(17,18)                1.3823         calculate D2E/DX2 analytically  !
 ! R28   R(17,19)                1.4492         calculate D2E/DX2 analytically  !
 ! R29   R(18,21)                1.3671         calculate D2E/DX2 analytically  !
 ! R30   R(18,39)                1.0784         calculate D2E/DX2 analytically  !
 ! R31   R(19,20)                1.4192         calculate D2E/DX2 analytically  !
 ! R32   R(19,22)                1.4022         calculate D2E/DX2 analytically  !
 ! R33   R(20,21)                1.3857         calculate D2E/DX2 analytically  !
 ! R34   R(20,23)                1.3921         calculate D2E/DX2 analytically  !
 ! R35   R(21,28)                1.0059         calculate D2E/DX2 analytically  !
 ! R36   R(22,25)                1.3887         calculate D2E/DX2 analytically  !
 ! R37   R(22,37)                1.0821         calculate D2E/DX2 analytically  !
 ! R38   R(23,24)                1.3877         calculate D2E/DX2 analytically  !
 ! R39   R(23,36)                1.0842         calculate D2E/DX2 analytically  !
 ! R40   R(24,25)                1.409          calculate D2E/DX2 analytically  !
 ! R41   R(24,35)                1.0858         calculate D2E/DX2 analytically  !
 ! R42   R(25,29)                1.3698         calculate D2E/DX2 analytically  !
 ! R43   R(29,34)                0.9619         calculate D2E/DX2 analytically  !
 ! A1    A(2,1,3)              120.8698         calculate D2E/DX2 analytically  !
 ! A2    A(2,1,31)             119.8625         calculate D2E/DX2 analytically  !
 ! A3    A(3,1,31)             119.2676         calculate D2E/DX2 analytically  !
 ! A4    A(1,2,4)              121.0042         calculate D2E/DX2 analytically  !
 ! A5    A(1,2,32)             119.6563         calculate D2E/DX2 analytically  !
 ! A6    A(4,2,32)             119.3394         calculate D2E/DX2 analytically  !
 ! A7    A(1,3,5)              117.7832         calculate D2E/DX2 analytically  !
 ! A8    A(1,3,30)             121.0253         calculate D2E/DX2 analytically  !
 ! A9    A(5,3,30)             121.1916         calculate D2E/DX2 analytically  !
 ! A10   A(2,4,6)              119.3649         calculate D2E/DX2 analytically  !
 ! A11   A(2,4,38)             120.961          calculate D2E/DX2 analytically  !
 ! A12   A(6,4,38)             119.6736         calculate D2E/DX2 analytically  !
 ! A13   A(3,5,6)              122.583          calculate D2E/DX2 analytically  !
 ! A14   A(3,5,8)              128.2869         calculate D2E/DX2 analytically  !
 ! A15   A(6,5,8)              109.1301         calculate D2E/DX2 analytically  !
 ! A16   A(4,6,5)              118.3943         calculate D2E/DX2 analytically  !
 ! A17   A(4,6,7)              134.3263         calculate D2E/DX2 analytically  !
 ! A18   A(5,6,7)              107.2794         calculate D2E/DX2 analytically  !
 ! A19   A(6,7,9)              106.0321         calculate D2E/DX2 analytically  !
 ! A20   A(6,7,11)             133.7391         calculate D2E/DX2 analytically  !
 ! A21   A(9,7,11)             120.2262         calculate D2E/DX2 analytically  !
 ! A22   A(5,8,9)              111.8657         calculate D2E/DX2 analytically  !
 ! A23   A(5,8,26)             126.0264         calculate D2E/DX2 analytically  !
 ! A24   A(9,8,26)             122.1076         calculate D2E/DX2 analytically  !
 ! A25   A(7,9,8)              105.6911         calculate D2E/DX2 analytically  !
 ! A26   A(7,9,10)             129.6169         calculate D2E/DX2 analytically  !
 ! A27   A(8,9,10)             124.6919         calculate D2E/DX2 analytically  !
 ! A28   A(7,11,12)            127.5057         calculate D2E/DX2 analytically  !
 ! A29   A(7,11,13)            126.7589         calculate D2E/DX2 analytically  !
 ! A30   A(12,11,13)           105.7303         calculate D2E/DX2 analytically  !
 ! A31   A(11,12,14)           109.0396         calculate D2E/DX2 analytically  !
 ! A32   A(11,12,33)           124.568          calculate D2E/DX2 analytically  !
 ! A33   A(14,12,33)           126.2966         calculate D2E/DX2 analytically  !
 ! A34   A(11,13,15)           131.1963         calculate D2E/DX2 analytically  !
 ! A35   A(11,13,16)           104.8087         calculate D2E/DX2 analytically  !
 ! A36   A(15,13,16)           123.9837         calculate D2E/DX2 analytically  !
 ! A37   A(12,14,16)           109.4463         calculate D2E/DX2 analytically  !
 ! A38   A(12,14,17)           129.3505         calculate D2E/DX2 analytically  !
 ! A39   A(16,14,17)           121.2017         calculate D2E/DX2 analytically  !
 ! A40   A(13,16,14)           110.7852         calculate D2E/DX2 analytically  !
 ! A41   A(13,16,27)           120.9414         calculate D2E/DX2 analytically  !
 ! A42   A(14,16,27)           124.939          calculate D2E/DX2 analytically  !
 ! A43   A(14,17,18)           124.6793         calculate D2E/DX2 analytically  !
 ! A44   A(14,17,19)           128.9039         calculate D2E/DX2 analytically  !
 ! A45   A(18,17,19)           106.4158         calculate D2E/DX2 analytically  !
 ! A46   A(17,18,21)           109.9458         calculate D2E/DX2 analytically  !
 ! A47   A(17,18,39)           128.8275         calculate D2E/DX2 analytically  !
 ! A48   A(21,18,39)           121.2069         calculate D2E/DX2 analytically  !
 ! A49   A(17,19,20)           106.7146         calculate D2E/DX2 analytically  !
 ! A50   A(17,19,22)           134.1463         calculate D2E/DX2 analytically  !
 ! A51   A(20,19,22)           119.1034         calculate D2E/DX2 analytically  !
 ! A52   A(19,20,21)           107.4057         calculate D2E/DX2 analytically  !
 ! A53   A(19,20,23)           122.07           calculate D2E/DX2 analytically  !
 ! A54   A(21,20,23)           130.5174         calculate D2E/DX2 analytically  !
 ! A55   A(18,21,20)           109.517          calculate D2E/DX2 analytically  !
 ! A56   A(18,21,28)           124.9262         calculate D2E/DX2 analytically  !
 ! A57   A(20,21,28)           125.5025         calculate D2E/DX2 analytically  !
 ! A58   A(19,22,25)           118.8372         calculate D2E/DX2 analytically  !
 ! A59   A(19,22,37)           122.3953         calculate D2E/DX2 analytically  !
 ! A60   A(25,22,37)           118.7474         calculate D2E/DX2 analytically  !
 ! A61   A(20,23,24)           117.8805         calculate D2E/DX2 analytically  !
 ! A62   A(20,23,36)           121.5636         calculate D2E/DX2 analytically  !
 ! A63   A(24,23,36)           120.5554         calculate D2E/DX2 analytically  !
 ! A64   A(23,24,25)           120.906          calculate D2E/DX2 analytically  !
 ! A65   A(23,24,35)           119.683          calculate D2E/DX2 analytically  !
 ! A66   A(25,24,35)           119.4088         calculate D2E/DX2 analytically  !
 ! A67   A(22,25,24)           121.1844         calculate D2E/DX2 analytically  !
 ! A68   A(22,25,29)           117.1689         calculate D2E/DX2 analytically  !
 ! A69   A(24,25,29)           121.6462         calculate D2E/DX2 analytically  !
 ! A70   A(25,29,34)           109.3785         calculate D2E/DX2 analytically  !
 ! D1    D(3,1,2,4)             -0.0176         calculate D2E/DX2 analytically  !
 ! D2    D(3,1,2,32)           179.8452         calculate D2E/DX2 analytically  !
 ! D3    D(31,1,2,4)          -179.9212         calculate D2E/DX2 analytically  !
 ! D4    D(31,1,2,32)           -0.0584         calculate D2E/DX2 analytically  !
 ! D5    D(2,1,3,5)              0.0909         calculate D2E/DX2 analytically  !
 ! D6    D(2,1,3,30)          -179.9239         calculate D2E/DX2 analytically  !
 ! D7    D(31,1,3,5)           179.9951         calculate D2E/DX2 analytically  !
 ! D8    D(31,1,3,30)           -0.0197         calculate D2E/DX2 analytically  !
 ! D9    D(1,2,4,6)             -0.1838         calculate D2E/DX2 analytically  !
 ! D10   D(1,2,4,38)           179.5791         calculate D2E/DX2 analytically  !
 ! D11   D(32,2,4,6)           179.9529         calculate D2E/DX2 analytically  !
 ! D12   D(32,2,4,38)           -0.2842         calculate D2E/DX2 analytically  !
 ! D13   D(1,3,5,6)              0.0362         calculate D2E/DX2 analytically  !
 ! D14   D(1,3,5,8)           -179.9308         calculate D2E/DX2 analytically  !
 ! D15   D(30,3,5,6)          -179.9489         calculate D2E/DX2 analytically  !
 ! D16   D(30,3,5,8)             0.084          calculate D2E/DX2 analytically  !
 ! D17   D(2,4,6,5)              0.3008         calculate D2E/DX2 analytically  !
 ! D18   D(2,4,6,7)           -179.7053         calculate D2E/DX2 analytically  !
 ! D19   D(38,4,6,5)          -179.4652         calculate D2E/DX2 analytically  !
 ! D20   D(38,4,6,7)             0.5287         calculate D2E/DX2 analytically  !
 ! D21   D(3,5,6,4)             -0.2333         calculate D2E/DX2 analytically  !
 ! D22   D(3,5,6,7)            179.7713         calculate D2E/DX2 analytically  !
 ! D23   D(8,5,6,4)            179.7393         calculate D2E/DX2 analytically  !
 ! D24   D(8,5,6,7)             -0.2561         calculate D2E/DX2 analytically  !
 ! D25   D(3,5,8,9)            179.967          calculate D2E/DX2 analytically  !
 ! D26   D(3,5,8,26)             0.1761         calculate D2E/DX2 analytically  !
 ! D27   D(6,5,8,9)             -0.0036         calculate D2E/DX2 analytically  !
 ! D28   D(6,5,8,26)          -179.7945         calculate D2E/DX2 analytically  !
 ! D29   D(4,6,7,9)           -179.5998         calculate D2E/DX2 analytically  !
 ! D30   D(4,6,7,11)             1.0112         calculate D2E/DX2 analytically  !
 ! D31   D(5,6,7,9)              0.3946         calculate D2E/DX2 analytically  !
 ! D32   D(5,6,7,11)          -178.9944         calculate D2E/DX2 analytically  !
 ! D33   D(6,7,9,8)             -0.3935         calculate D2E/DX2 analytically  !
 ! D34   D(6,7,9,10)           179.5513         calculate D2E/DX2 analytically  !
 ! D35   D(11,7,9,8)           179.0956         calculate D2E/DX2 analytically  !
 ! D36   D(11,7,9,10)           -0.9596         calculate D2E/DX2 analytically  !
 ! D37   D(6,7,11,12)          178.6336         calculate D2E/DX2 analytically  !
 ! D38   D(6,7,11,13)           -0.4214         calculate D2E/DX2 analytically  !
 ! D39   D(9,7,11,12)           -0.6868         calculate D2E/DX2 analytically  !
 ! D40   D(9,7,11,13)         -179.7418         calculate D2E/DX2 analytically  !
 ! D41   D(5,8,9,7)              0.2501         calculate D2E/DX2 analytically  !
 ! D42   D(5,8,9,10)          -179.6982         calculate D2E/DX2 analytically  !
 ! D43   D(26,8,9,7)          -179.9496         calculate D2E/DX2 analytically  !
 ! D44   D(26,8,9,10)            0.1021         calculate D2E/DX2 analytically  !
 ! D45   D(7,11,12,14)        -178.0488         calculate D2E/DX2 analytically  !
 ! D46   D(7,11,12,33)          -1.4198         calculate D2E/DX2 analytically  !
 ! D47   D(13,11,12,14)          1.1647         calculate D2E/DX2 analytically  !
 ! D48   D(13,11,12,33)        177.7937         calculate D2E/DX2 analytically  !
 ! D49   D(7,11,13,15)          -5.3995         calculate D2E/DX2 analytically  !
 ! D50   D(7,11,13,16)         175.8151         calculate D2E/DX2 analytically  !
 ! D51   D(12,11,13,15)        175.3794         calculate D2E/DX2 analytically  !
 ! D52   D(12,11,13,16)         -3.406          calculate D2E/DX2 analytically  !
 ! D53   D(11,12,14,16)          1.561          calculate D2E/DX2 analytically  !
 ! D54   D(11,12,14,17)       -178.8836         calculate D2E/DX2 analytically  !
 ! D55   D(33,12,14,16)       -174.9947         calculate D2E/DX2 analytically  !
 ! D56   D(33,12,14,17)          4.5607         calculate D2E/DX2 analytically  !
 ! D57   D(11,13,16,14)          4.478          calculate D2E/DX2 analytically  !
 ! D58   D(11,13,16,27)        164.825          calculate D2E/DX2 analytically  !
 ! D59   D(15,13,16,14)       -174.4198         calculate D2E/DX2 analytically  !
 ! D60   D(15,13,16,27)        -14.0728         calculate D2E/DX2 analytically  !
 ! D61   D(12,14,16,13)         -3.9686         calculate D2E/DX2 analytically  !
 ! D62   D(12,14,16,27)       -163.366          calculate D2E/DX2 analytically  !
 ! D63   D(17,14,16,13)        176.4333         calculate D2E/DX2 analytically  !
 ! D64   D(17,14,16,27)         17.036          calculate D2E/DX2 analytically  !
 ! D65   D(12,14,17,18)         26.0204         calculate D2E/DX2 analytically  !
 ! D66   D(12,14,17,19)       -154.3986         calculate D2E/DX2 analytically  !
 ! D67   D(16,14,17,18)       -154.4698         calculate D2E/DX2 analytically  !
 ! D68   D(16,14,17,19)         25.1112         calculate D2E/DX2 analytically  !
 ! D69   D(14,17,18,21)        179.7514         calculate D2E/DX2 analytically  !
 ! D70   D(14,17,18,39)          1.3782         calculate D2E/DX2 analytically  !
 ! D71   D(19,17,18,21)          0.0913         calculate D2E/DX2 analytically  !
 ! D72   D(19,17,18,39)       -178.2818         calculate D2E/DX2 analytically  !
 ! D73   D(14,17,19,20)       -179.516          calculate D2E/DX2 analytically  !
 ! D74   D(14,17,19,22)          2.7652         calculate D2E/DX2 analytically  !
 ! D75   D(18,17,19,20)          0.1247         calculate D2E/DX2 analytically  !
 ! D76   D(18,17,19,22)       -177.594          calculate D2E/DX2 analytically  !
 ! D77   D(17,18,21,20)         -0.2812         calculate D2E/DX2 analytically  !
 ! D78   D(17,18,21,28)       -177.7225         calculate D2E/DX2 analytically  !
 ! D79   D(39,18,21,20)        178.237          calculate D2E/DX2 analytically  !
 ! D80   D(39,18,21,28)          0.7957         calculate D2E/DX2 analytically  !
 ! D81   D(17,19,20,21)         -0.2903         calculate D2E/DX2 analytically  !
 ! D82   D(17,19,20,23)       -179.4301         calculate D2E/DX2 analytically  !
 ! D83   D(22,19,20,21)        177.8364         calculate D2E/DX2 analytically  !
 ! D84   D(22,19,20,23)         -1.3034         calculate D2E/DX2 analytically  !
 ! D85   D(17,19,22,25)        178.9893         calculate D2E/DX2 analytically  !
 ! D86   D(17,19,22,37)          0.6378         calculate D2E/DX2 analytically  !
 ! D87   D(20,19,22,25)          1.49           calculate D2E/DX2 analytically  !
 ! D88   D(20,19,22,37)       -176.8615         calculate D2E/DX2 analytically  !
 ! D89   D(19,20,21,18)          0.3545         calculate D2E/DX2 analytically  !
 ! D90   D(19,20,21,28)        177.7776         calculate D2E/DX2 analytically  !
 ! D91   D(23,20,21,18)        179.3957         calculate D2E/DX2 analytically  !
 ! D92   D(23,20,21,28)         -3.1813         calculate D2E/DX2 analytically  !
 ! D93   D(19,20,23,24)          0.1796         calculate D2E/DX2 analytically  !
 ! D94   D(19,20,23,36)        179.9236         calculate D2E/DX2 analytically  !
 ! D95   D(21,20,23,24)       -178.7407         calculate D2E/DX2 analytically  !
 ! D96   D(21,20,23,36)          1.0033         calculate D2E/DX2 analytically  !
 ! D97   D(19,22,25,24)         -0.6206         calculate D2E/DX2 analytically  !
 ! D98   D(19,22,25,29)        179.6451         calculate D2E/DX2 analytically  !
 ! D99   D(37,22,25,24)        177.7918         calculate D2E/DX2 analytically  !
 ! D100  D(37,22,25,29)         -1.9425         calculate D2E/DX2 analytically  !
 ! D101  D(20,23,24,25)          0.7295         calculate D2E/DX2 analytically  !
 ! D102  D(20,23,24,35)       -179.8162         calculate D2E/DX2 analytically  !
 ! D103  D(36,23,24,25)       -179.0172         calculate D2E/DX2 analytically  !
 ! D104  D(36,23,24,35)          0.4371         calculate D2E/DX2 analytically  !
 ! D105  D(23,24,25,22)         -0.5192         calculate D2E/DX2 analytically  !
 ! D106  D(23,24,25,29)        179.2031         calculate D2E/DX2 analytically  !
 ! D107  D(35,24,25,22)       -179.975          calculate D2E/DX2 analytically  !
 ! D108  D(35,24,25,29)         -0.2526         calculate D2E/DX2 analytically  !
 ! D109  D(22,25,29,34)        178.1083         calculate D2E/DX2 analytically  !
 ! D110  D(24,25,29,34)         -1.6247         calculate D2E/DX2 analytically  !
 --------------------------------------------------------------------------------
 Trust Radius=3.00D-01 FncErr=1.00D-07 GrdErr=1.00D-06 EigMax=2.50D+02 EigMin=1.00D-04
 Number of steps in this run=    233 maximum allowed number of steps=    234.
 GradGradGradGradGradGradGradGradGradGradGradGradGradGradGradGradGradGrad

                          Input orientation:                          
 ---------------------------------------------------------------------
 Center     Atomic      Atomic             Coordinates (Angstroms)
 Number     Number       Type             X           Y           Z
 ---------------------------------------------------------------------
      1          6           0       -5.520191    0.660866   -0.429472
      2          6           0       -4.942239    1.905201   -0.679177
      3          6           0       -4.730825   -0.440803   -0.086066
      4          6           0       -3.561534    2.086573   -0.593295
      5          6           0       -3.362299   -0.252545   -0.001384
      6          6           0       -2.746952    1.002043   -0.247274
      7          6           0       -1.312268    0.824335   -0.061721
      8          7           0       -2.380632   -1.187597    0.318443
      9          6           0       -1.115138   -0.631176    0.303417
     10          8           0       -0.087545   -1.239478    0.542894
     11          6           0       -0.233003    1.668602   -0.143312
     12          6           0        1.146216    1.349896    0.096492
     13          6           0       -0.259668    3.141862   -0.488399
     14          6           0        1.898120    2.483648   -0.049017
     15          8           0       -1.168974    3.863737   -0.841281
     16          7           0        1.058941    3.564744   -0.345326
     17          6           0        3.326129    2.656393    0.070664
     18          6           0        4.259459    1.658874   -0.140452
     19          6           0        4.073002    3.850445    0.412311
     20          6           0        5.446607    3.494853    0.383658
     21          7           0        5.520337    2.152412    0.048307
     22          6           0        3.714101    5.156910    0.773663
     23          6           0        6.453410    4.410283    0.677598
     24          6           0        6.077325    5.704121    1.009836
     25          6           0        4.718170    6.071807    1.062294
     26          1           0       -2.535956   -2.158834    0.536218
     27          1           0        1.365208    4.444895   -0.728490
     28          1           0        6.369146    1.627878   -0.079064
     29          8           0        4.329417    7.339988    1.404061
     30          1           0       -5.177280   -1.409424    0.107358
     31          1           0       -6.595070    0.540462   -0.502751
     32          1           0       -5.572439    2.745138   -0.946295
     33          1           0        1.505116    0.382626    0.399342
     34          1           0        5.107067    7.868079    1.608270
     35          1           0        6.838748    6.442651    1.241486
     36          1           0        7.500337    4.129373    0.654389
     37          1           0        2.682425    5.471533    0.861230
     38          1           0       -3.114414    3.048147   -0.793239
     39          1           0        4.098958    0.634484   -0.436672
 ---------------------------------------------------------------------
                    Distance matrix (angstroms):
                    1          2          3          4          5
     1  C    0.000000
     2  C    1.394543   0.000000
     3  C    1.398107   2.429036   0.000000
     4  C    2.428130   1.395213   2.830575   0.000000
     5  C    2.382032   2.758891   1.384007   2.421059   0.000000
     6  C    2.800082   2.412783   2.458363   1.399814   1.418840
     7  C    4.227125   3.837475   3.645230   2.633441   2.316450
     8  N    3.719277   4.137931   2.498946   3.598052   1.392940
     9  C    4.648763   4.695253   3.641583   3.764984   2.299130
    10  O    5.836990   5.911897   4.753264   4.941876   3.463278
    11  C    5.389970   4.745528   4.968225   3.384715   3.674703
    12  C    6.722528   6.162736   6.146506   4.814707   4.785823
    13  C    5.816521   4.846875   5.743571   3.467990   4.624446
    14  C    7.648439   6.893635   7.245460   5.501065   5.929673
    15  O    5.418584   4.254370   5.637925   2.990677   4.739185
    16  N    7.191979   6.235359   7.045070   4.857495   5.851269
    17  C    9.082381   8.336213   8.633174   6.943013   7.293982
    18  C    9.834689   9.220745   9.232378   7.845758   7.859011
    19  C   10.144525   9.287082   9.806659   7.899913   8.502316
    20  C   11.356202  10.563368  10.922003   9.169749   9.580609
    21  N   11.151065  10.490750  10.574929   9.104744   9.202582
    22  C   10.340895   9.360373  10.168102   8.014388   8.940825
    23  C   12.595668  11.746365  12.214882  10.359242  10.888119
    24  C   12.728253  11.777748  12.481074  10.419418  11.207629
    25  C   11.675945  10.663810  11.533270   9.336839  10.316144
    26  H    4.217693   4.876861   2.855927   4.511218   2.146112
    27  H    7.862379   6.799733   7.838646   5.463766   6.704025
    28  H   11.933743  11.330687  11.291095   9.954558   9.911763
    29  O   12.041067  10.947164  12.035330   9.687874  10.898822
    30  H    2.166075   3.414766   1.083957   3.914531   2.155076
    31  H    1.084081   2.150696   2.147538   3.406025   3.366161
    32  H    2.148028   1.083512   3.405662   2.145241   3.842354
    33  H    7.079498   6.711917   6.308773   5.436883   4.925013
    34  H   13.001343  11.907009  12.988164  10.649758  11.843381
    35  H   13.746437  12.769850  13.527725  11.423997  12.265062
    36  H   13.518116  12.709958  13.078077  11.317894  11.731501
    37  H    9.596423   8.557282   9.529394   7.249870   8.369460
    38  H    3.408695   2.158768   3.909687   1.079129   3.403388
    39  H    9.619188   9.133279   8.901923   7.798476   7.526398
                    6          7          8          9         10
     6  C    0.000000
     7  C    1.457508   0.000000
     8  N    2.291015   2.309501   0.000000
     9  C    2.373495   1.513505   1.382499   0.000000
    10  O    3.566683   2.474839   2.304630   1.217920   0.000000
    11  C    2.602891   1.372682   3.603248   2.503339   2.991482
    12  C    3.923765   2.519005   4.350493   3.013501   2.902808
    13  C    3.289916   2.580882   4.888118   3.949002   4.504367
    14  C    4.879666   3.613871   5.649848   4.348110   4.260855
    15  O    3.321468   3.141053   5.322503   4.638693   5.397057
    16  N    4.589321   3.634956   5.903896   4.770035   5.018357
    17  C    6.302401   4.988856   6.885112   5.530563   5.201344
    18  C    7.037942   5.634429   7.239046   5.858980   5.269141
    19  C    7.420257   6.195416   8.187801   6.856646   6.575296
    20  C    8.587583   7.280963   9.121144   7.751584   7.284647
    21  N    8.352172   6.961349   8.582187   7.200206   6.572508
    22  C    7.749221   6.688308   8.809414   7.552789   7.444430
    23  C    9.854854   8.585532  10.464490   9.101607   8.644191
    24  C   10.077585   8.920013  10.932101   9.610751   9.297162
    25  C    9.118416   8.072518  10.180631   8.918148   8.764677
    26  H    3.263361   3.279366   1.007400   2.099204   2.615335
    27  H    5.384668   4.552133   6.844877   5.743121   6.003249
    28  H    9.139102   7.723347   9.200191   7.827140   7.092067
    29  O    9.642170   8.742474  10.905184   9.715660   9.688054
    30  H    3.442011   4.467280   2.813362   4.140665   5.111162
    31  H    3.884114   5.308776   4.628394   5.661475   6.827111
    32  H    3.392697   4.756156   5.220498   5.729643   6.941103
    33  H    4.345327   2.888830   4.191799   2.811179   2.277805
    34  H   10.595806   9.675281  11.820937  10.613944  10.538815
    35  H   11.122152   9.985133  12.002902  10.685659  10.367095
    36  H   10.751749   9.439178  11.225710   9.849488   9.295856
    37  H    7.119216   6.197246   8.382909   7.209417   7.267168
    38  H    2.149337   2.954352   4.440248   4.328646   5.415803
    39  H    6.858386   5.427522   6.773128   5.416311   4.690212
                   11         12         13         14         15
    11  C    0.000000
    12  C    1.435732   0.000000
    13  C    1.513371   2.351542   0.000000
    14  C    2.283610   1.368183   2.298336   0.000000
    15  O    2.486326   3.543857   1.213453   3.455342   0.000000
    16  N    2.303320   2.260171   1.392130   1.400282   2.301950
    17  C    3.699856   2.541578   3.661443   1.443390   4.742918
    18  C    4.492474   3.137497   4.768943   2.502905   5.900886
    19  C    4.859099   3.862456   4.481674   2.609804   5.389804
    20  C    5.989229   4.814215   5.783309   3.715038   6.738135
    21  N    5.776825   4.447391   5.888592   3.638633   6.961816
    22  C    5.346847   4.641762   4.630773   3.334805   5.303279
    23  C    7.273158   6.153858   6.930646   4.999057   7.791434
    24  C    7.578615   6.641484   6.997668   5.381299   7.702110
    25  C    6.734673   5.999006   5.980643   4.697083   6.569447
    26  H    4.518254   5.105187   5.859070   6.446407   6.327520
    27  H    3.256458   3.210541   2.096607   2.142935   2.602411
    28  H    6.602587   5.233267   6.811818   4.552287   7.899575
    29  O    7.441415   6.908235   6.501182   5.621982   6.881729
    30  H    5.829490   6.899317   6.726964   8.077236   6.691238
    31  H    6.471305   7.806522   6.848709   8.724455   6.371914
    32  H    5.505751   6.940781   5.347205   7.528794   4.544535
    33  H    2.229185   1.075239   3.393513   2.183981   4.561583
    34  H    8.367670   7.775637   7.452180   6.483521   7.837330
    35  H    8.644008   7.723476   8.017183   6.461340   8.666737
    36  H    8.154525   6.957844   7.905619   5.881159   8.801394
    37  H    4.896030   4.464600   3.988079   3.220426   4.507419
    38  H    3.260074   4.672114   2.872505   5.098825   2.110031
    39  H    4.463334   3.084601   5.028642   2.900582   6.192164
                   16         17         18         19         20
    16  N    0.000000
    17  C    2.477557   0.000000
    18  C    3.730634   1.382287   0.000000
    19  C    3.120931   1.449243   2.267884   0.000000
    20  C    4.448361   2.301610   2.248295   1.419175   0.000000
    21  N    4.696135   2.251454   1.367122   2.260663   1.385657
    22  C    3.291961   2.626274   3.656402   1.402225   2.432307
    23  C    5.555323   3.636535   3.612877   2.459702   1.392144
    24  C    5.621173   4.211861   4.581683   2.794720   2.381338
    25  C    4.653678   3.819184   4.596845   2.402741   2.762582
    26  H    6.816139   7.600473   7.823710   8.933371   9.783085
    27  H    1.007611   2.771750   4.060097   2.997824   4.335582
    28  H    5.658677   3.215620   2.110807   3.233192   2.133257
    29  O    5.292338   4.971982   5.887739   3.636788   4.132119
    30  H    7.989851   9.425507   9.926123  10.645513  11.704497
    31  H    8.231340  10.160520  10.918009  11.207190  12.430452
    32  H    6.708809   8.956930   9.924494   9.803166  11.124308
    33  H    3.298405   2.931575   3.083276   4.315088   5.022107
    34  H    6.222745   5.718186   6.506204   4.317521   4.554127
    35  H    6.648797   5.295760   5.607763   3.880259   3.370970
    36  H    6.542922   4.464798   4.151918   3.447176   2.166499
    37  H    2.779806   2.994055   4.245794   2.182466   3.431624
    38  H    4.228994   6.510022   7.531946   7.331848   8.653076
    39  H    4.223325   2.223234   1.078370   3.326237   3.266620
                   21         22         23         24         25
    21  N    0.000000
    22  C    3.579894   0.000000
    23  C    2.522819   2.840861   0.000000
    24  C    3.721480   2.437221   1.387745   0.000000
    25  C    4.127142   1.388704   2.433045   1.408988   0.000000
    26  H    9.150341   9.624952  11.134720  11.672145  10.983740
    27  H    4.808741   2.877626   5.279023   5.177980   4.134744
    28  H    1.005901   4.497830   2.884687   4.229258   4.876159
    29  O    5.492478   2.354112   3.690836   2.426244   1.369751
    30  H   11.275157  11.073273  13.017954  13.344779  12.441891
    31  H   12.234588  11.367491  13.661317  13.767386  12.689939
    32  H   11.153037   9.747550  12.248706  12.177809  10.999900
    33  H    4.401973   5.273853   6.386319   7.042450   6.567344
    34  H    5.939119   3.160279   3.825591   2.445862   1.917270
    35  H    4.644140   3.411071   2.144055   1.085750   2.160205
    36  H    2.862885   3.925002   1.084207   2.152008   3.417585
    37  H    4.441976   1.082133   3.921773   3.406102   2.131904
    38  H    8.721781   7.316467   9.775584   9.736187   8.598540
    39  H    2.135328   4.697378   4.587123   5.630944   5.674046
                   26         27         28         29         30
    26  H    0.000000
    27  H    7.773532   0.000000
    28  H    9.696318   5.778991   0.000000
    29  O   11.752196   4.660029   6.244066   0.000000
    30  H    2.778872   8.819062  11.940683  12.985028   0.000000
    31  H    4.984182   8.869137  13.016639  13.008225   2.486849
    32  H    5.955420   7.146157  12.025049  11.166180   4.304269
    33  H    4.775774   4.218247   5.043640   7.575687   6.924675
    34  H   12.653224   5.583918   6.586354   0.961936  13.931712
    35  H   12.742371   6.150730   5.014621   2.669904  14.398829
    36  H   11.844099   6.296961   2.841659   4.574363  13.845559
    37  H    9.249845   2.305700   5.408304   2.549191  10.473340
    38  H    5.405065   4.692772   9.615878   8.868971   4.993640
    39  H    7.264381   4.698700   2.503690   6.957384   9.514312
                   31         32         33         34         35
    31  H    0.000000
    32  H    2.470446   0.000000
    33  H    8.151791   7.581820   0.000000
    34  H   13.967477  12.117020   8.394496   0.000000
    35  H   14.776525  13.133757   8.116695   2.272685   0.000000
    36  H   14.591085  13.242952   7.074308   4.540436   2.476619
    37  H   10.594707   8.879367   5.243698   3.490042   4.285171
    38  H    4.299749   2.481356   5.465100   9.828109  10.711125
    39  H   10.694646   9.912139   2.736854   7.584390   6.637580
                   36         37         38         39
    36  H    0.000000
    37  H    5.005643   0.000000
    38  H   10.767433   6.497184   0.000000
    39  H    4.997403   5.204628   7.614831   0.000000
 Symmetry turned off by external request.
 Stoichiometry    C20H13N3O3
 Framework group  C1[X(C20H13N3O3)]
 Deg. of freedom   111
 Full point group                 C1      NOp   1
 Rotational constants (GHZ):           0.5435004           0.0886130           0.0777417
 Standard basis: 6-311G(d,p) (5D, 7F)
 The following finite field(s) will be applied:
 An electric field of             -0.0005  0.0000  0.0000
   546 basis functions,   936 primitive gaussians,   572 cartesian basis functions
    89 alpha electrons       89 beta electrons
       nuclear repulsion energy      2061.4541346041 Hartrees.
 NAtoms=   39 NActive=   39 NUniq=   39 SFac= 1.00D+00 NAtFMM=   60 NAOKFM=F Big=F
 Integral buffers will be    131072 words long.
 Raffenetti 2 integral format.
 Two-electron integral symmetry is turned off.
 One-electron integrals computed using PRISM.
 NBasis=   546 RedAO= T EigKep=  1.09D-04  NBF=   546
 NBsUse=   546 1.00D-06 EigRej= -1.00D+00 NBFU=   546
 The nuclear repulsion energy is now      2061.3157914488 hartrees.
 ExpMin= 1.03D-01 ExpMax= 8.59D+03 ExpMxC= 1.30D+03 IAcc=3 IRadAn=         5 AccDes= 0.00D+00
 Harris functional with IExCor=  402 and IRadAn=       5 diagonalized for initial guess.
 HarFok:  IExCor=  402 AccDes= 0.00D+00 IRadAn=         5 IDoV= 1 UseB2=F ITyADJ=14
 ICtDFT=  3500011 ScaDFX=  1.000000  1.000000  1.000000  1.000000
 FoFCou: FMM=F IPFlag=           0 FMFlag=      100000 FMFlg1=           0
         NFxFlg=           0 DoJE=T BraDBF=F KetDBF=T FulRan=T
         wScrn=  0.000000 ICntrl=       500 IOpCl=  0 I1Cent=   200000004 NGrid=           0
         NMat0=    1 NMatS0=      1 NMatT0=    0 NMatD0=    1 NMtDS0=    0 NMtDT0=    0
 Symmetry not used in FoFCou.
 Requested convergence on RMS density matrix=1.00D-08 within 128 cycles.
 Requested convergence on MAX density matrix=1.00D-06.
 Requested convergence on             energy=1.00D-06.
 No special actions if energy rises.
 Integral accuracy reduced to 1.0D-05 until final iterations.
 Initial convergence to 1.0D-05 achieved.  Increase integral accuracy.
 SCF Done:  E(RB3LYP) =  -1160.20400514     A.U. after   15 cycles
            NFock= 15  Conv=0.81D-08     -V/T= 2.0038
 DoSCS=F DFT=T ScalE2(SS,OS)=  1.000000  1.000000
 Range of M.O.s used for correlation:     1   546
 NBasis=   546 NAE=    89 NBE=    89 NFC=     0 NFV=     0
 NROrb=    546 NOA=    89 NOB=    89 NVA=   457 NVB=   457

 **** Warning!!: The largest alpha MO coefficient is  0.17229910D+02


 **** Warning!!: The smallest alpha delta epsilon is  0.93454276D-01

 PrsmSu:  requested number of processors reduced to:  22 ShMem   1 Linda.
 PrsmSu:  requested number of processors reduced to:   4 ShMem   1 Linda.
 Symmetrizing basis deriv contribution to polar:
 IMax=3 JMax=2 DiffMx= 0.00D+00
 G2DrvN: will do     3 centers at a time, making   14 passes.
 Calling FoFCou, ICntrl=  3107 FMM=F I1Cent=   0 AccDes= 0.00D+00.
 Calling FoFCou, ICntrl=  3107 FMM=F I1Cent=   0 AccDes= 0.00D+00.
 Calling FoFCou, ICntrl=  3107 FMM=F I1Cent=   0 AccDes= 0.00D+00.
 Calling FoFCou, ICntrl=  3107 FMM=F I1Cent=   0 AccDes= 0.00D+00.
 Calling FoFCou, ICntrl=  3107 FMM=F I1Cent=   0 AccDes= 0.00D+00.
 Calling FoFCou, ICntrl=  3107 FMM=F I1Cent=   0 AccDes= 0.00D+00.
 Calling FoFCou, ICntrl=  3107 FMM=F I1Cent=   0 AccDes= 0.00D+00.
 Calling FoFCou, ICntrl=  3107 FMM=F I1Cent=   0 AccDes= 0.00D+00.
 Calling FoFCou, ICntrl=  3107 FMM=F I1Cent=   0 AccDes= 0.00D+00.
 Calling FoFCou, ICntrl=  3107 FMM=F I1Cent=   0 AccDes= 0.00D+00.
 Calling FoFCou, ICntrl=  3107 FMM=F I1Cent=   0 AccDes= 0.00D+00.
 Calling FoFCou, ICntrl=  3107 FMM=F I1Cent=   0 AccDes= 0.00D+00.
 Calling FoFCou, ICntrl=  3107 FMM=F I1Cent=   0 AccDes= 0.00D+00.
 Calling FoFCou, ICntrl=  3107 FMM=F I1Cent=   0 AccDes= 0.00D+00.
 End of G2Drv F.D. properties on file   721 Mask=       0 NFrqRd=     2 NDeriv=     1 ND12= 1 LenFil=       4:
 Frequencies=    0.000000    0.058042
 End of G2Drv F.D. properties file   722 does not exist.
 End of G2Drv F.D. properties file   788 does not exist.
          IDoAtm=111111111111111111111111111111111111111
          Differentiating once with respect to electric field.
                with respect to dipole field.
          Differentiating once with respect to nuclear coordinates.
 CalDSu exits because no D1Ps are significant.
          There are   120 degrees of freedom in the 1st order CPHF.  IDoFFX=6 NUNeed=     3.
    120 vectors produced by pass  0 Test12= 4.07D-14 1.00D-09 XBig12= 1.26D+03 2.86D+01.
 AX will form     8 AO Fock derivatives at one time.
    120 vectors produced by pass  1 Test12= 4.07D-14 1.00D-09 XBig12= 1.42D+02 1.51D+00.
    117 vectors produced by pass  2 Test12= 4.07D-14 1.00D-09 XBig12= 2.01D+00 1.46D-01.
    117 vectors produced by pass  3 Test12= 4.07D-14 1.00D-09 XBig12= 1.02D-02 9.27D-03.
    117 vectors produced by pass  4 Test12= 4.07D-14 1.00D-09 XBig12= 3.04D-05 3.98D-04.
    112 vectors produced by pass  5 Test12= 4.07D-14 1.00D-09 XBig12= 5.16D-08 2.16D-05.
     46 vectors produced by pass  6 Test12= 4.07D-14 1.00D-09 XBig12= 5.76D-11 5.96D-07.
      3 vectors produced by pass  7 Test12= 4.07D-14 1.00D-09 XBig12= 6.13D-14 1.65D-08.
 InvSVY:  IOpt=1 It=  1 EMax= 1.42D-14
 Solved reduced A of dimension   752 with   120 vectors.
 Isotropic polarizability for W=    0.000000      323.78 Bohr**3.
 End of Minotr F.D. properties on file   721 Mask=       0 NFrqRd=     2 NDeriv=     1 ND12= 1 LenFil=       4:
 Frequencies=    0.000000    0.058042
 End of Minotr F.D. properties file   722 does not exist.
 End of Minotr F.D. properties file   788 does not exist.

 **********************************************************************

            Population analysis using the SCF density.

 **********************************************************************

 Alpha  occ. eigenvalues --  -19.15003 -19.10368 -19.08826 -14.37960 -14.34863
 Alpha  occ. eigenvalues --  -14.34596 -10.28246 -10.27216 -10.24053 -10.23290
 Alpha  occ. eigenvalues --  -10.22774 -10.21875 -10.21688 -10.19813 -10.19439
 Alpha  occ. eigenvalues --  -10.19319 -10.19275 -10.19129 -10.18500 -10.17936
 Alpha  occ. eigenvalues --  -10.17779 -10.17571 -10.17428 -10.16624 -10.16312
 Alpha  occ. eigenvalues --  -10.15816  -1.06607  -1.05569  -1.04296  -1.00500
 Alpha  occ. eigenvalues --   -0.96580  -0.96058  -0.85861  -0.84672  -0.81947
 Alpha  occ. eigenvalues --   -0.81697  -0.77338  -0.75489  -0.74810  -0.73939
 Alpha  occ. eigenvalues --   -0.71935  -0.69779  -0.64642  -0.64191  -0.62891
 Alpha  occ. eigenvalues --   -0.61527  -0.61137  -0.58604  -0.57898  -0.56951
 Alpha  occ. eigenvalues --   -0.54645  -0.54212  -0.52923  -0.50300  -0.50128
 Alpha  occ. eigenvalues --   -0.48591  -0.47907  -0.45868  -0.45848  -0.45523
 Alpha  occ. eigenvalues --   -0.44932  -0.44713  -0.44542  -0.43969  -0.43712
 Alpha  occ. eigenvalues --   -0.43182  -0.42581  -0.41510  -0.41201  -0.40866
 Alpha  occ. eigenvalues --   -0.40794  -0.39699  -0.38638  -0.36929  -0.36701
 Alpha  occ. eigenvalues --   -0.35578  -0.35064  -0.34520  -0.32726  -0.31995
 Alpha  occ. eigenvalues --   -0.30575  -0.29585  -0.27409  -0.25858  -0.25468
 Alpha  occ. eigenvalues --   -0.24091  -0.22432  -0.21969  -0.19050
 Alpha virt. eigenvalues --   -0.09704  -0.03641  -0.00275   0.00929   0.01370
 Alpha virt. eigenvalues --    0.01847   0.02528   0.02874   0.04723   0.05160
 Alpha virt. eigenvalues --    0.05418   0.06121   0.06193   0.07593   0.09031
 Alpha virt. eigenvalues --    0.09443   0.11335   0.11676   0.12562   0.13294
 Alpha virt. eigenvalues --    0.14705   0.15271   0.16503   0.17481   0.17932
 Alpha virt. eigenvalues --    0.18597   0.18974   0.20114   0.21408   0.22090
 Alpha virt. eigenvalues --    0.22364   0.23376   0.24545   0.25077   0.25519
 Alpha virt. eigenvalues --    0.26479   0.27929   0.28098   0.28879   0.30156
 Alpha virt. eigenvalues --    0.30303   0.31222   0.31506   0.32784   0.33736
 Alpha virt. eigenvalues --    0.34297   0.35227   0.35565   0.36465   0.36844
 Alpha virt. eigenvalues --    0.37325   0.37477   0.37747   0.38698   0.38963
 Alpha virt. eigenvalues --    0.39180   0.39637   0.40059   0.40427   0.40986
 Alpha virt. eigenvalues --    0.41604   0.41664   0.42380   0.42654   0.43214
 Alpha virt. eigenvalues --    0.43363   0.43883   0.44043   0.44499   0.45428
 Alpha virt. eigenvalues --    0.45698   0.46128   0.46205   0.46791   0.47272
 Alpha virt. eigenvalues --    0.47852   0.48107   0.48576   0.49517   0.50140
 Alpha virt. eigenvalues --    0.51153   0.52099   0.52698   0.53416   0.54014
 Alpha virt. eigenvalues --    0.54271   0.55147   0.55853   0.56977   0.57246
 Alpha virt. eigenvalues --    0.58106   0.58551   0.59936   0.60230   0.60499
 Alpha virt. eigenvalues --    0.61119   0.61320   0.61792   0.62325   0.62678
 Alpha virt. eigenvalues --    0.63392   0.64365   0.64653   0.65340   0.65522
 Alpha virt. eigenvalues --    0.65834   0.66406   0.67041   0.68590   0.68855
 Alpha virt. eigenvalues --    0.70003   0.71537   0.71812   0.72139   0.72914
 Alpha virt. eigenvalues --    0.73450   0.74328   0.75125   0.75314   0.76058
 Alpha virt. eigenvalues --    0.76144   0.77600   0.78080   0.79140   0.79698
 Alpha virt. eigenvalues --    0.81256   0.81969   0.83101   0.83974   0.84546
 Alpha virt. eigenvalues --    0.85275   0.86282   0.86893   0.87516   0.88213
 Alpha virt. eigenvalues --    0.89713   0.90018   0.90895   0.91376   0.92151
 Alpha virt. eigenvalues --    0.92827   0.93922   0.94244   0.95994   0.96884
 Alpha virt. eigenvalues --    0.97492   0.98388   0.98987   1.00253   1.00907
 Alpha virt. eigenvalues --    1.01376   1.02249   1.02594   1.04249   1.04464
 Alpha virt. eigenvalues --    1.05639   1.06272   1.06997   1.08220   1.08763
 Alpha virt. eigenvalues --    1.09703   1.10427   1.10972   1.11660   1.12207
 Alpha virt. eigenvalues --    1.12948   1.13292   1.13722   1.13854   1.14670
 Alpha virt. eigenvalues --    1.14824   1.16033   1.16613   1.17110   1.18335
 Alpha virt. eigenvalues --    1.18696   1.20612   1.21100   1.22460   1.24448
 Alpha virt. eigenvalues --    1.24840   1.26722   1.27425   1.29117   1.32311
 Alpha virt. eigenvalues --    1.34616   1.36783   1.38846   1.39253   1.40671
 Alpha virt. eigenvalues --    1.41345   1.42822   1.43931   1.44328   1.44397
 Alpha virt. eigenvalues --    1.45675   1.46420   1.49073   1.49873   1.50823
 Alpha virt. eigenvalues --    1.51544   1.52402   1.52683   1.53001   1.53762
 Alpha virt. eigenvalues --    1.54600   1.54769   1.55520   1.55585   1.56635
 Alpha virt. eigenvalues --    1.57879   1.57960   1.59703   1.60288   1.61238
 Alpha virt. eigenvalues --    1.62349   1.63168   1.63814   1.64971   1.65370
 Alpha virt. eigenvalues --    1.65811   1.66481   1.68054   1.68750   1.69400
 Alpha virt. eigenvalues --    1.69613   1.71718   1.71923   1.72609   1.72855
 Alpha virt. eigenvalues --    1.74628   1.74808   1.75385   1.78047   1.78424
 Alpha virt. eigenvalues --    1.79417   1.80638   1.81975   1.82642   1.82856
 Alpha virt. eigenvalues --    1.83037   1.84073   1.85019   1.85480   1.86359
 Alpha virt. eigenvalues --    1.86949   1.87608   1.89014   1.89434   1.90032
 Alpha virt. eigenvalues --    1.90380   1.90709   1.91258   1.92473   1.93329
 Alpha virt. eigenvalues --    1.94295   1.94850   1.95386   1.96688   1.97192
 Alpha virt. eigenvalues --    1.97805   2.00664   2.00775   2.02384   2.03465
 Alpha virt. eigenvalues --    2.04320   2.05031   2.06660   2.08229   2.08493
 Alpha virt. eigenvalues --    2.09501   2.10326   2.10953   2.12530   2.14533
 Alpha virt. eigenvalues --    2.16430   2.19257   2.20975   2.21938   2.23354
 Alpha virt. eigenvalues --    2.24094   2.28588   2.29218   2.30188   2.31324
 Alpha virt. eigenvalues --    2.31556   2.32811   2.34469   2.35351   2.36401
 Alpha virt. eigenvalues --    2.37504   2.39601   2.40871   2.41946   2.43560
 Alpha virt. eigenvalues --    2.44461   2.44785   2.47925   2.48227   2.49318
 Alpha virt. eigenvalues --    2.49746   2.51215   2.51413   2.52292   2.54355
 Alpha virt. eigenvalues --    2.55341   2.56693   2.57086   2.58677   2.58888
 Alpha virt. eigenvalues --    2.59401   2.61181   2.62131   2.64007   2.64482
 Alpha virt. eigenvalues --    2.64764   2.65093   2.65464   2.65827   2.67238
 Alpha virt. eigenvalues --    2.67757   2.68678   2.70125   2.70826   2.71662
 Alpha virt. eigenvalues --    2.73071   2.74503   2.74754   2.75646   2.76011
 Alpha virt. eigenvalues --    2.77651   2.78224   2.79617   2.80320   2.81775
 Alpha virt. eigenvalues --    2.82301   2.83451   2.84095   2.84303   2.85955
 Alpha virt. eigenvalues --    2.86914   2.87469   2.88511   2.90860   2.91675
 Alpha virt. eigenvalues --    2.92098   2.93218   2.95620   2.97019   2.98222
 Alpha virt. eigenvalues --    2.98988   2.99531   3.01332   3.01718   3.03531
 Alpha virt. eigenvalues --    3.04749   3.05212   3.06338   3.08801   3.09456
 Alpha virt. eigenvalues --    3.12516   3.13850   3.16881   3.19437   3.21118
 Alpha virt. eigenvalues --    3.25367   3.25970   3.30203   3.32734   3.33505
 Alpha virt. eigenvalues --    3.34074   3.34949   3.35422   3.36217   3.37224
 Alpha virt. eigenvalues --    3.39222   3.40895   3.41651   3.42417   3.43650
 Alpha virt. eigenvalues --    3.45814   3.46856   3.48138   3.49305   3.51097
 Alpha virt. eigenvalues --    3.54300   3.56273   3.57778   3.60127   3.61172
 Alpha virt. eigenvalues --    3.62753   3.64760   3.66371   3.73814   3.75606
 Alpha virt. eigenvalues --    3.77410   3.77974   3.81025   3.82215   3.85491
 Alpha virt. eigenvalues --    3.89686   3.93450   3.94425   4.01041   4.02261
 Alpha virt. eigenvalues --    4.04345   4.05512   4.11008   4.13880   4.19108
 Alpha virt. eigenvalues --    4.29684   4.33824   4.50758   4.67661   4.80436
 Alpha virt. eigenvalues --    4.81356   4.82384   4.87286   4.89124   4.90937
 Alpha virt. eigenvalues --    4.91092   4.92372   5.07580   5.08628   5.11599
 Alpha virt. eigenvalues --    5.17945   5.21163   5.32467   5.70008   5.70510
 Alpha virt. eigenvalues --    5.73545  23.45844  23.50990  23.65039  23.75588
 Alpha virt. eigenvalues --   23.83929  23.86308  23.86505  23.87779  23.90759
 Alpha virt. eigenvalues --   23.93102  23.95078  24.02032  24.05780  24.07905
 Alpha virt. eigenvalues --   24.10588  24.11270  24.13358  24.15960  24.16887
 Alpha virt. eigenvalues --   24.19294  35.58060  35.60440  35.61347  49.90501
 Alpha virt. eigenvalues --   50.00611  50.01842
          Condensed to atoms (all electrons):
               1          2          3          4          5          6
     1  C    4.864318   0.508928   0.500215  -0.051035  -0.030742  -0.044070
     2  C    0.508928   4.926417  -0.055550   0.473411  -0.053132  -0.048048
     3  C    0.500215  -0.055550   4.905219  -0.039500   0.471252  -0.048394
     4  C   -0.051035   0.473411  -0.039500   4.886388  -0.052222   0.528308
     5  C   -0.030742  -0.053132   0.471252  -0.052222   4.878775   0.416351
     6  C   -0.044070  -0.048048  -0.048394   0.528308   0.416351   5.218915
     7  C   -0.000450   0.016303   0.007333  -0.069993  -0.080060   0.335808
     8  N    0.005955  -0.000219  -0.058818   0.006603   0.370163  -0.055592
     9  C   -0.000397  -0.000157   0.002548   0.010507  -0.118779   0.000519
    10  O    0.000004  -0.000001  -0.000160   0.000052  -0.001643   0.009736
    11  C    0.000057  -0.000616  -0.000258  -0.019232   0.025950  -0.115996
    12  C   -0.000001   0.000002   0.000010   0.000068  -0.000293   0.006448
    13  C   -0.000033   0.000497   0.000025  -0.001039   0.000156  -0.028123
    14  C   -0.000000   0.000001   0.000000   0.000034   0.000022  -0.000694
    15  O   -0.000022   0.001031   0.000004  -0.008688   0.000096  -0.013313
    16  N   -0.000000   0.000002   0.000000   0.000050  -0.000002  -0.000253
    17  C    0.000000   0.000000  -0.000000   0.000000   0.000000  -0.000008
    18  C    0.000000  -0.000000  -0.000000  -0.000000  -0.000000   0.000001
    19  C   -0.000000   0.000000   0.000000  -0.000000   0.000000  -0.000000
    20  C    0.000000   0.000000   0.000000   0.000000  -0.000000   0.000000
    21  N    0.000000   0.000000  -0.000000   0.000000  -0.000000   0.000000
    22  C   -0.000000   0.000000  -0.000000   0.000000  -0.000000   0.000000
    23  C    0.000000   0.000000  -0.000000  -0.000000   0.000000  -0.000000
    24  C    0.000000  -0.000000   0.000000  -0.000000   0.000000   0.000000
    25  C   -0.000000   0.000000  -0.000000  -0.000000  -0.000000   0.000000
    26  H    0.000381  -0.000024  -0.001988  -0.000363  -0.036839   0.002718
    27  H    0.000000  -0.000001  -0.000000  -0.000016  -0.000001   0.000057
    28  H    0.000000  -0.000000   0.000000  -0.000000  -0.000000   0.000000
    29  O   -0.000000  -0.000000   0.000000   0.000000   0.000000   0.000000
    30  H   -0.036682   0.007184   0.406859  -0.000744  -0.044452   0.009383
    31  H    0.412427  -0.042497  -0.042342   0.007854   0.008448  -0.000472
    32  H   -0.046717   0.415701   0.008122  -0.039171  -0.000258   0.008129
    33  H   -0.000001   0.000000   0.000008  -0.000043   0.000115  -0.001357
    34  H   -0.000000   0.000000   0.000000   0.000000   0.000000  -0.000000
    35  H    0.000000  -0.000000  -0.000000  -0.000000  -0.000000   0.000000
    36  H    0.000000   0.000000  -0.000000   0.000000  -0.000000   0.000000
    37  H   -0.000000   0.000000   0.000000   0.000000  -0.000000   0.000000
    38  H    0.006816  -0.040449  -0.001158   0.413690   0.007872  -0.034060
    39  H    0.000000  -0.000000  -0.000000  -0.000000  -0.000000   0.000001
               7          8          9         10         11         12
     1  C   -0.000450   0.005955  -0.000397   0.000004   0.000057  -0.000001
     2  C    0.016303  -0.000219  -0.000157  -0.000001  -0.000616   0.000002
     3  C    0.007333  -0.058818   0.002548  -0.000160  -0.000258   0.000010
     4  C   -0.069993   0.006603   0.010507   0.000052  -0.019232   0.000068
     5  C   -0.080060   0.370163  -0.118779  -0.001643   0.025950  -0.000293
     6  C    0.335808  -0.055592   0.000519   0.009736  -0.115996   0.006448
     7  C    5.662705  -0.098575   0.165046  -0.106976   0.436297  -0.083045
     8  N   -0.098575   6.664970   0.383273  -0.088981   0.008909   0.000375
     9  C    0.165046   0.383273   4.562191   0.718214  -0.099395  -0.015566
    10  O   -0.106976  -0.088981   0.718214   7.805847  -0.016223  -0.006720
    11  C    0.436297   0.008909  -0.099395  -0.016223   5.619760   0.431154
    12  C   -0.083045   0.000375  -0.015566  -0.006720   0.431154   5.106424
    13  C   -0.081815  -0.000128   0.005671  -0.000024   0.146681  -0.040002
    14  C    0.016134   0.000004   0.002152   0.001808  -0.068584   0.446536
    15  O    0.005129  -0.000002   0.000165   0.000000  -0.107990   0.006512
    16  N    0.009868   0.000000  -0.000134  -0.000005  -0.101198  -0.075330
    17  C   -0.001229  -0.000000   0.000007  -0.000037   0.000745  -0.062531
    18  C    0.000065  -0.000000  -0.000014  -0.000021   0.000587  -0.007882
    19  C   -0.000016   0.000000   0.000000  -0.000000  -0.001146   0.008026
    20  C    0.000000   0.000000   0.000000   0.000000   0.000026  -0.000467
    21  N    0.000000  -0.000000  -0.000000  -0.000000  -0.000004   0.000179
    22  C   -0.000000  -0.000000  -0.000000  -0.000000  -0.000027  -0.000253
    23  C   -0.000000  -0.000000   0.000000  -0.000000  -0.000000   0.000002
    24  C    0.000000   0.000000   0.000000   0.000000   0.000000  -0.000002
    25  C    0.000000  -0.000000   0.000000  -0.000000   0.000002  -0.000003
    26  H    0.019532   0.355209  -0.028544   0.008219   0.000190  -0.000041
    27  H    0.000041  -0.000000   0.000005   0.000000   0.016425   0.004666
    28  H    0.000000   0.000000  -0.000000   0.000000  -0.000000  -0.000007
    29  O    0.000000   0.000000  -0.000000  -0.000000   0.000000   0.000000
    30  H   -0.000710  -0.005159  -0.000502  -0.000020   0.000015  -0.000000
    31  H   -0.000010  -0.000188   0.000023  -0.000000  -0.000004   0.000000
    32  H   -0.000353   0.000011   0.000006  -0.000000   0.000010   0.000000
    33  H   -0.024046   0.001068  -0.000296   0.029095  -0.015974   0.417062
    34  H    0.000000   0.000000   0.000000  -0.000000  -0.000000   0.000000
    35  H   -0.000000   0.000000   0.000000  -0.000000  -0.000000   0.000000
    36  H    0.000000  -0.000000  -0.000000  -0.000000   0.000000  -0.000000
    37  H    0.000005  -0.000000  -0.000000  -0.000000   0.000037  -0.000456
    38  H   -0.012536  -0.000062  -0.000307  -0.000001   0.002544  -0.000304
    39  H    0.000017  -0.000000  -0.000007  -0.000077  -0.000041   0.005176
              13         14         15         16         17         18
     1  C   -0.000033  -0.000000  -0.000022  -0.000000   0.000000   0.000000
     2  C    0.000497   0.000001   0.001031   0.000002   0.000000  -0.000000
     3  C    0.000025   0.000000   0.000004   0.000000  -0.000000  -0.000000
     4  C   -0.001039   0.000034  -0.008688   0.000050   0.000000  -0.000000
     5  C    0.000156   0.000022   0.000096  -0.000002   0.000000  -0.000000
     6  C   -0.028123  -0.000694  -0.013313  -0.000253  -0.000008   0.000001
     7  C   -0.081815   0.016134   0.005129   0.009868  -0.001229   0.000065
     8  N   -0.000128   0.000004  -0.000002   0.000000  -0.000000  -0.000000
     9  C    0.005671   0.002152   0.000165  -0.000134   0.000007  -0.000014
    10  O   -0.000024   0.001808   0.000000  -0.000005  -0.000037  -0.000021
    11  C    0.146681  -0.068584  -0.107990  -0.101198   0.000745   0.000587
    12  C   -0.040002   0.446536   0.006512  -0.075330  -0.062531  -0.007882
    13  C    4.581939  -0.111037   0.696606   0.397273   0.004386  -0.000304
    14  C   -0.111037   4.943189  -0.000909   0.376354   0.365942  -0.067972
    15  O    0.696606  -0.000909   7.797416  -0.083272  -0.000318   0.000001
    16  N    0.397273   0.376354  -0.083272   6.647374  -0.056729   0.003505
    17  C    0.004386   0.365942  -0.000318  -0.056729   5.110559   0.517990
    18  C   -0.000304  -0.067972   0.000001   0.003505   0.517990   4.821160
    19  C   -0.000014  -0.084575   0.000002  -0.013978   0.476645  -0.072613
    20  C    0.000024   0.017801   0.000000  -0.000045  -0.054027  -0.155934
    21  N    0.000002   0.005918  -0.000000  -0.000025  -0.057282   0.408120
    22  C   -0.000167  -0.019148  -0.000011   0.001077  -0.082187   0.015513
    23  C   -0.000000  -0.000497  -0.000000  -0.000005   0.001390   0.007157
    24  C    0.000000   0.000150   0.000000   0.000003   0.005009  -0.000856
    25  C   -0.000010  -0.000214  -0.000000   0.000231   0.005959  -0.000370
    26  H    0.000005  -0.000005  -0.000000  -0.000000   0.000000   0.000000
    27  H   -0.025027  -0.033293   0.008530   0.351450  -0.006839  -0.000215
    28  H   -0.000000  -0.000027   0.000000   0.000006   0.008585  -0.034185
    29  O    0.000000   0.000000  -0.000000  -0.000000  -0.000153   0.000003
    30  H    0.000000   0.000000  -0.000000  -0.000000  -0.000000  -0.000000
    31  H    0.000000   0.000000   0.000000   0.000000   0.000000  -0.000000
    32  H    0.000012  -0.000000  -0.000054  -0.000000  -0.000000   0.000000
    33  H    0.007421  -0.043283  -0.000048   0.003389  -0.004080   0.001811
    34  H   -0.000000   0.000000  -0.000000  -0.000000   0.000029  -0.000002
    35  H   -0.000000  -0.000002   0.000000   0.000000  -0.000044   0.000033
    36  H    0.000000   0.000022  -0.000000  -0.000000  -0.000280  -0.000564
    37  H    0.000479   0.001330  -0.000110   0.009832  -0.009883  -0.000230
    38  H   -0.008347   0.000049   0.031623   0.000663   0.000007  -0.000000
    39  H   -0.000030  -0.007537  -0.000000  -0.000156  -0.035195   0.414046
              19         20         21         22         23         24
     1  C   -0.000000   0.000000   0.000000  -0.000000   0.000000   0.000000
     2  C    0.000000   0.000000   0.000000   0.000000   0.000000  -0.000000
     3  C    0.000000   0.000000  -0.000000  -0.000000  -0.000000   0.000000
     4  C   -0.000000   0.000000   0.000000   0.000000  -0.000000  -0.000000
     5  C    0.000000  -0.000000  -0.000000  -0.000000   0.000000   0.000000
     6  C   -0.000000   0.000000   0.000000   0.000000  -0.000000   0.000000
     7  C   -0.000016   0.000000   0.000000  -0.000000  -0.000000   0.000000
     8  N    0.000000   0.000000  -0.000000  -0.000000  -0.000000   0.000000
     9  C    0.000000   0.000000  -0.000000  -0.000000   0.000000   0.000000
    10  O   -0.000000   0.000000  -0.000000  -0.000000  -0.000000   0.000000
    11  C   -0.001146   0.000026  -0.000004  -0.000027  -0.000000   0.000000
    12  C    0.008026  -0.000467   0.000179  -0.000253   0.000002  -0.000002
    13  C   -0.000014   0.000024   0.000002  -0.000167  -0.000000   0.000000
    14  C   -0.084575   0.017801   0.005918  -0.019148  -0.000497   0.000150
    15  O    0.000002   0.000000  -0.000000  -0.000011  -0.000000   0.000000
    16  N   -0.013978  -0.000045  -0.000025   0.001077  -0.000005   0.000003
    17  C    0.476645  -0.054027  -0.057282  -0.082187   0.001390   0.005009
    18  C   -0.072613  -0.155934   0.408120   0.015513   0.007157  -0.000856
    19  C    5.040155   0.453171  -0.052841   0.481288  -0.062814  -0.027193
    20  C    0.453171   4.924610   0.379132  -0.074740   0.474392  -0.039969
    21  N   -0.052841   0.379132   6.448402   0.007312  -0.051691   0.004990
    22  C    0.481288  -0.074740   0.007312   4.967509  -0.012391  -0.098771
    23  C   -0.062814   0.474392  -0.051691  -0.012391   4.864749   0.452053
    24  C   -0.027193  -0.039969   0.004990  -0.098771   0.452053   5.095184
    25  C   -0.050271  -0.048043  -0.000060   0.535803  -0.024668   0.430240
    26  H    0.000000  -0.000000   0.000000   0.000000   0.000000  -0.000000
    27  H    0.003270   0.000059  -0.000033   0.001382   0.000006  -0.000052
    28  H    0.007572  -0.036586   0.375137  -0.000403  -0.001490  -0.000039
    29  O    0.001233  -0.000070  -0.000000  -0.049607   0.007109  -0.071456
    30  H    0.000000  -0.000000  -0.000000  -0.000000  -0.000000   0.000000
    31  H    0.000000   0.000000  -0.000000   0.000000  -0.000000  -0.000000
    32  H    0.000000  -0.000000   0.000000  -0.000000  -0.000000   0.000000
    33  H   -0.000170   0.000018  -0.000032  -0.000045  -0.000000   0.000000
    34  H   -0.000541  -0.000086  -0.000001   0.007360   0.001237  -0.004359
    35  H    0.000018   0.007921  -0.000174   0.006478  -0.021135   0.400708
    36  H    0.007442  -0.042573  -0.003641  -0.000434   0.399214  -0.025414
    37  H   -0.045430   0.008494  -0.000063   0.396690  -0.002285   0.011126
    38  H   -0.000000   0.000000   0.000000   0.000000   0.000000   0.000000
    39  H    0.008694   0.004339  -0.032020   0.000023  -0.000262   0.000007
              25         26         27         28         29         30
     1  C   -0.000000   0.000381   0.000000   0.000000  -0.000000  -0.036682
     2  C    0.000000  -0.000024  -0.000001  -0.000000  -0.000000   0.007184
     3  C   -0.000000  -0.001988  -0.000000   0.000000   0.000000   0.406859
     4  C   -0.000000  -0.000363  -0.000016  -0.000000   0.000000  -0.000744
     5  C   -0.000000  -0.036839  -0.000001  -0.000000   0.000000  -0.044452
     6  C    0.000000   0.002718   0.000057   0.000000   0.000000   0.009383
     7  C    0.000000   0.019532   0.000041   0.000000   0.000000  -0.000710
     8  N   -0.000000   0.355209  -0.000000   0.000000   0.000000  -0.005159
     9  C    0.000000  -0.028544   0.000005  -0.000000  -0.000000  -0.000502
    10  O   -0.000000   0.008219   0.000000   0.000000  -0.000000  -0.000020
    11  C    0.000002   0.000190   0.016425  -0.000000   0.000000   0.000015
    12  C   -0.000003  -0.000041   0.004666  -0.000007   0.000000  -0.000000
    13  C   -0.000010   0.000005  -0.025027  -0.000000   0.000000   0.000000
    14  C   -0.000214  -0.000005  -0.033293  -0.000027   0.000000   0.000000
    15  O   -0.000000  -0.000000   0.008530   0.000000  -0.000000  -0.000000
    16  N    0.000231  -0.000000   0.351450   0.000006  -0.000000  -0.000000
    17  C    0.005959   0.000000  -0.006839   0.008585  -0.000153  -0.000000
    18  C   -0.000370   0.000000  -0.000215  -0.034185   0.000003  -0.000000
    19  C   -0.050271   0.000000   0.003270   0.007572   0.001233   0.000000
    20  C   -0.048043  -0.000000   0.000059  -0.036586  -0.000070  -0.000000
    21  N   -0.000060   0.000000  -0.000033   0.375137  -0.000000  -0.000000
    22  C    0.535803   0.000000   0.001382  -0.000403  -0.049607  -0.000000
    23  C   -0.024668   0.000000   0.000006  -0.001490   0.007109  -0.000000
    24  C    0.430240  -0.000000  -0.000052  -0.000039  -0.071456   0.000000
    25  C    4.769319   0.000000  -0.000263   0.000029   0.353084  -0.000000
    26  H    0.000000   0.454998   0.000000   0.000000   0.000000   0.002398
    27  H   -0.000263   0.000000   0.446668   0.000002  -0.000044   0.000000
    28  H    0.000029   0.000000   0.000002   0.447013  -0.000000   0.000000
    29  O    0.353084   0.000000  -0.000044  -0.000000   7.797994  -0.000000
    30  H   -0.000000   0.002398   0.000000   0.000000  -0.000000   0.584900
    31  H    0.000000  -0.000028  -0.000000  -0.000000  -0.000000  -0.008204
    32  H    0.000000  -0.000000  -0.000000   0.000000   0.000000  -0.000327
    33  H   -0.000001  -0.000032  -0.000007   0.000008   0.000000   0.000000
    34  H   -0.049064  -0.000000   0.000003   0.000000   0.325410   0.000000
    35  H   -0.051218   0.000000   0.000000  -0.000017  -0.004165   0.000000
    36  H    0.006414   0.000000  -0.000000   0.002832  -0.000098  -0.000000
    37  H   -0.032286   0.000000  -0.002301   0.000025   0.006005  -0.000000
    38  H    0.000000   0.000022   0.000012  -0.000000  -0.000000   0.000043
    39  H    0.000012   0.000000  -0.000029  -0.004399   0.000000  -0.000000
              31         32         33         34         35         36
     1  C    0.412427  -0.046717  -0.000001  -0.000000   0.000000   0.000000
     2  C   -0.042497   0.415701   0.000000   0.000000  -0.000000   0.000000
     3  C   -0.042342   0.008122   0.000008   0.000000  -0.000000  -0.000000
     4  C    0.007854  -0.039171  -0.000043   0.000000  -0.000000   0.000000
     5  C    0.008448  -0.000258   0.000115   0.000000  -0.000000  -0.000000
     6  C   -0.000472   0.008129  -0.001357  -0.000000   0.000000   0.000000
     7  C   -0.000010  -0.000353  -0.024046   0.000000  -0.000000   0.000000
     8  N   -0.000188   0.000011   0.001068   0.000000   0.000000  -0.000000
     9  C    0.000023   0.000006  -0.000296   0.000000   0.000000  -0.000000
    10  O   -0.000000  -0.000000   0.029095  -0.000000  -0.000000  -0.000000
    11  C   -0.000004   0.000010  -0.015974  -0.000000  -0.000000   0.000000
    12  C    0.000000   0.000000   0.417062   0.000000   0.000000  -0.000000
    13  C    0.000000   0.000012   0.007421  -0.000000  -0.000000   0.000000
    14  C    0.000000  -0.000000  -0.043283   0.000000  -0.000002   0.000022
    15  O    0.000000  -0.000054  -0.000048  -0.000000   0.000000  -0.000000
    16  N    0.000000  -0.000000   0.003389  -0.000000   0.000000  -0.000000
    17  C    0.000000  -0.000000  -0.004080   0.000029  -0.000044  -0.000280
    18  C   -0.000000   0.000000   0.001811  -0.000002   0.000033  -0.000564
    19  C    0.000000   0.000000  -0.000170  -0.000541   0.000018   0.007442
    20  C    0.000000  -0.000000   0.000018  -0.000086   0.007921  -0.042573
    21  N   -0.000000   0.000000  -0.000032  -0.000001  -0.000174  -0.003641
    22  C    0.000000  -0.000000  -0.000045   0.007360   0.006478  -0.000434
    23  C   -0.000000  -0.000000  -0.000000   0.001237  -0.021135   0.399214
    24  C   -0.000000   0.000000   0.000000  -0.004359   0.400708  -0.025414
    25  C    0.000000   0.000000  -0.000001  -0.049064  -0.051218   0.006414
    26  H   -0.000028  -0.000000  -0.000032  -0.000000   0.000000   0.000000
    27  H   -0.000000  -0.000000  -0.000007   0.000003   0.000000  -0.000000
    28  H   -0.000000   0.000000   0.000008   0.000000  -0.000017   0.002832
    29  O   -0.000000   0.000000   0.000000   0.325410  -0.004165  -0.000098
    30  H   -0.008204  -0.000327   0.000000   0.000000   0.000000  -0.000000
    31  H    0.584229  -0.008557   0.000000   0.000000  -0.000000   0.000000
    32  H   -0.008557   0.581402  -0.000000   0.000000   0.000000  -0.000000
    33  H    0.000000  -0.000000   0.509446  -0.000000  -0.000000   0.000000
    34  H    0.000000   0.000000  -0.000000   0.468658   0.004830  -0.000029
    35  H   -0.000000   0.000000  -0.000000   0.004830   0.574079  -0.008680
    36  H    0.000000  -0.000000   0.000000  -0.000029  -0.008680   0.569706
    37  H    0.000000   0.000000  -0.000015  -0.000851  -0.000403   0.000068
    38  H   -0.000222  -0.007165  -0.000010   0.000000  -0.000000   0.000000
    39  H   -0.000000   0.000000   0.000136   0.000000  -0.000000  -0.000016
              37         38         39
     1  C   -0.000000   0.006816   0.000000
     2  C    0.000000  -0.040449  -0.000000
     3  C    0.000000  -0.001158  -0.000000
     4  C    0.000000   0.413690  -0.000000
     5  C   -0.000000   0.007872  -0.000000
     6  C    0.000000  -0.034060   0.000001
     7  C    0.000005  -0.012536   0.000017
     8  N   -0.000000  -0.000062  -0.000000
     9  C   -0.000000  -0.000307  -0.000007
    10  O   -0.000000  -0.000001  -0.000077
    11  C    0.000037   0.002544  -0.000041
    12  C   -0.000456  -0.000304   0.005176
    13  C    0.000479  -0.008347  -0.000030
    14  C    0.001330   0.000049  -0.007537
    15  O   -0.000110   0.031623  -0.000000
    16  N    0.009832   0.000663  -0.000156
    17  C   -0.009883   0.000007  -0.035195
    18  C   -0.000230  -0.000000   0.414046
    19  C   -0.045430  -0.000000   0.008694
    20  C    0.008494   0.000000   0.004339
    21  N   -0.000063   0.000000  -0.032020
    22  C    0.396690   0.000000   0.000023
    23  C   -0.002285   0.000000  -0.000262
    24  C    0.011126   0.000000   0.000007
    25  C   -0.032286   0.000000   0.000012
    26  H    0.000000   0.000022   0.000000
    27  H   -0.002301   0.000012  -0.000029
    28  H    0.000025  -0.000000  -0.004399
    29  O    0.006005  -0.000000   0.000000
    30  H   -0.000000   0.000043  -0.000000
    31  H    0.000000  -0.000222  -0.000000
    32  H    0.000000  -0.007165   0.000000
    33  H   -0.000015  -0.000010   0.000136
    34  H   -0.000851   0.000000   0.000000
    35  H   -0.000403  -0.000000  -0.000000
    36  H    0.000068   0.000000  -0.000016
    37  H    0.560704  -0.000000   0.000005
    38  H   -0.000000   0.509275   0.000000
    39  H    0.000005   0.000000   0.526891
 Mulliken charges:
               1
     1  C   -0.088950
     2  C   -0.108783
     3  C   -0.053427
     4  C   -0.044919
     5  C    0.239224
     6  C   -0.145993
     7  C   -0.114468
     8  N   -0.488815
     9  C    0.413771
    10  O   -0.352086
    11  C   -0.142701
    12  C   -0.139737
    13  C    0.454920
    14  C    0.260328
    15  O   -0.332376
    16  N   -0.469946
    17  C   -0.126432
    18  C    0.151169
    19  C   -0.075913
    20  C    0.182551
    21  N   -0.431322
    22  C   -0.082252
    23  C   -0.030072
    24  C   -0.131361
    25  C    0.155378
    26  H    0.224193
    27  H    0.235546
    28  H    0.235943
    29  O   -0.365245
    30  H    0.086016
    31  H    0.089542
    32  H    0.089208
    33  H    0.119861
    34  H    0.247406
    35  H    0.091772
    36  H    0.096032
    37  H    0.099511
    38  H    0.132005
    39  H    0.120424
 Sum of Mulliken charges =  -0.00000
 Mulliken charges with hydrogens summed into heavy atoms:
               1
     1  C    0.000592
     2  C   -0.019575
     3  C    0.032588
     4  C    0.087085
     5  C    0.239224
     6  C   -0.145993
     7  C   -0.114468
     8  N   -0.264623
     9  C    0.413771
    10  O   -0.352086
    11  C   -0.142701
    12  C   -0.019876
    13  C    0.454920
    14  C    0.260328
    15  O   -0.332376
    16  N   -0.234400
    17  C   -0.126432
    18  C    0.271594
    19  C   -0.075913
    20  C    0.182551
    21  N   -0.195379
    22  C    0.017259
    23  C    0.065960
    24  C   -0.039588
    25  C    0.155378
    29  O   -0.117839
 APT charges:
               1
     1  C   -0.016866
     2  C   -0.159592
     3  C   -0.133507
     4  C    0.009131
     5  C    0.355565
     6  C   -0.049149
     7  C   -0.387509
     8  N   -0.767264
     9  C    1.153186
    10  O   -0.685422
    11  C    0.324595
    12  C   -0.867407
    13  C    0.867057
    14  C    1.056337
    15  O   -0.579913
    16  N   -0.504025
    17  C   -0.502019
    18  C    0.460747
    19  C    0.259649
    20  C    0.004288
    21  N   -0.860017
    22  C   -0.226547
    23  C    0.096510
    24  C   -0.175306
    25  C    0.629689
    26  H    0.206404
    27  H    0.238865
    28  H    0.243359
    29  O   -0.754198
    30  H    0.020094
    31  H    0.014217
    32  H    0.015809
    33  H    0.090330
    34  H    0.307859
    35  H    0.020638
    36  H    0.034655
    37  H    0.071413
    38  H    0.097685
    39  H    0.090655
 Sum of APT charges =  -0.00000
 APT charges with hydrogens summed into heavy atoms:
               1
     1  C   -0.002649
     2  C   -0.143783
     3  C   -0.113413
     4  C    0.106816
     5  C    0.355565
     6  C   -0.049149
     7  C   -0.387509
     8  N   -0.560859
     9  C    1.153186
    10  O   -0.685422
    11  C    0.324595
    12  C   -0.777077
    13  C    0.867057
    14  C    1.056337
    15  O   -0.579913
    16  N   -0.265160
    17  C   -0.502019
    18  C    0.551402
    19  C    0.259649
    20  C    0.004288
    21  N   -0.616658
    22  C   -0.155134
    23  C    0.131165
    24  C   -0.154669
    25  C    0.629689
    29  O   -0.446339
 Electronic spatial extent (au):  <R**2>=          16831.5980
 Charge=              0.0000 electrons
 Dipole moment (field-independent basis, Debye):
    X=              6.8460    Y=              0.0945    Z=              0.0337  Tot=              6.8468
 Quadrupole moment (field-independent basis, Debye-Ang):
   XX=            -86.5871   YY=           -134.4739   ZZ=           -153.3659
   XY=             34.1469   XZ=              0.1242   YZ=              3.9500
 Traceless Quadrupole moment (field-independent basis, Debye-Ang):
   XX=             38.2219   YY=             -9.6650   ZZ=            -28.5569
   XY=             34.1469   XZ=              0.1242   YZ=              3.9500
 Octapole moment (field-independent basis, Debye-Ang**2):
  XXX=              0.7958  YYY=           -922.9043  ZZZ=            -52.3597  XYY=             53.9278
  XXY=           -175.7235  XXZ=             10.3782  XZZ=           -113.0452  YZZ=           -355.8259
  YYZ=             27.4833  XYZ=             42.2325
 Hexadecapole moment (field-independent basis, Debye-Ang**3):
 XXXX=          -9688.1507 YYYY=          -8267.7967 ZZZZ=           -465.4019 XXXY=          -1814.4581
 XXXZ=           -373.8134 YYYX=          -1755.2462 YYYZ=              5.9719 ZZZX=           -679.2373
 ZZZY=           -390.0841 XXYY=          -2385.7719 XXZZ=          -2327.0029 YYZZ=          -1661.5348
 XXYZ=            149.8648 YYXZ=            123.7085 ZZXY=          -1085.5636
 N-N= 2.061315791449D+03 E-N=-6.828943148932D+03  KE= 1.155862275121D+03
  Exact polarizability: 543.285 128.778 318.969  33.151   8.673 109.099
[...]
 -0.00000095,-0.00000141,-0.00000459,-0.00001587,0.00000317,-0.00000789
 ,0.00001534,-0.00000403,0.00000259,-0.00001626,0.00000413,-0.00000270,
 -0.00001478,0.00000257,0.00000907,0.00001226,0.00000143,-0.00004724,-0
 .00012614,0.00002252,-0.00005374,-0.00000815,-0.00000237,0.00001201,0.
 00017000,-0.00003924,0.00003558,-0.00006325,0.00002074,0.00014523,-0.0
 0003313,0.00002073,-0.00020648,-0.00004668,-0.00003038,0.00006939,-0.0
 0000285,0.00001236,0.00029992,0.00004959,0.00000857,-0.00002852,0.0000
 2978,-0.00001375,-0.00007407,0.00001676,0.00002605,-0.00030580,0.00036
 516,0.00002460,0.00072785,-0.00061160,-0.00004370,0.00044105,-0.000521
 18,0.00018401,0.00330256,-0.00340363,-0.00228552,-0.00189010,-0.000530
 32,-0.00061085,0.00220453,0.00075961,-0.00090912,-0.02253314,-0.016050
 51,-0.00526494,-0.12990756,-0.17970047,-0.04300297,0.00735059,0.004575
 02,0.00089884,-0.00000063,0.00000625,-0.00000248,0.00001576,-0.0000180
 5,-0.00001228,-0.00005493,0.00002193,-0.00002710,0.00033394,0.00319088
 ,0.00172800,-0.00000253,-0.00000541,0.00000059,-0.00000547,-0.00000062
 ,-0.00000060,-0.00000511,0.00000416,-0.00000175,0.00000400,0.00001431,
 -0.00000866,-0.00090700,0.00012991,-0.00021908,0.14082478,0.19073473,-
 0.00000469,-0.00000125,-0.00000079,0.00000051,-0.00000235,0.00000014,-
 0.00000214,0.00000373,-0.00000199,-0.00000120,-0.00000277,-0.00000060,
 0.00000172,-0.00000933,0.00000369,0.00001021,0.00000201,-0.00000206,-0
 .00002783,-0.00003102,0.00000533,-0.00001821,-0.00000063,-0.00000568,0
 .00000859,0.00003766,0.00000254,0.00000307,-0.00001028,-0.00000273,0.0
 0006641,-0.00001386,-0.00000024,-0.00007828,-0.00001078,-0.00000202,-0
 .00000016,0.00000039,0.00001095,0.00008440,0.00001415,0.00000836,-0.00
 000523,0.00001186,-0.00001117,0.00001859,-0.00000166,0.00000854,-0.000
 09026,0.00009715,0.00008109,0.00024421,-0.00012830,-0.00013266,0.00009
 085,0.00020190,-0.00122571,0.00059967,-0.00235837,0.00602510,-0.000574
 03,-0.00053175,0.00127678,0.00031047,-0.00078594,0.00433497,-0.0053913
 3,-0.00408874,0.00001388,-0.03904455,-0.04305217,-0.04067167,0.0013073
 4,-0.00032348,0.00193867,0.00000002,0.00000173,0.00000151,-0.00000857,
 -0.00000280,0.00000417,-0.00001524,-0.00002565,0.00011684,0.00028804,0
 .00177347,-0.00283266,-0.00000046,-0.00000089,0.00000078,-0.00000133,-
 0.00000010,0.00000029,-0.00000173,0.00000128,0.00000047,0.00000031,0.0
 0000081,0.00000048,-0.00029329,-0.00016597,0.00072702,0.04225574,0.048
 07452,0.03468438,-0.00001511,0.00000043,-0.00000177,-0.00000473,-0.000
 01341,0.00000225,-0.00000315,0.00000965,-0.00000218,0.00000420,-0.0000
 1138,0.00000303,-0.00000908,-0.00000345,-0.00000041,0.00000324,0.00000
 237,-0.00000532,-0.00003295,-0.00008373,0.00001588,-0.00002950,-0.0000
 1067,-0.00000084,-0.00000495,0.00013473,-0.00002798,0.00003609,-0.0000
 5976,0.00001645,0.00007970,-0.00007124,0.00004870,-0.00022455,0.000011
 80,-0.00003311,0.00009457,0.00002510,0.00001195,0.00016342,-0.00031227
 ,-0.00007981,-0.00003569,0.00001477,-0.00001482,-0.00002881,-0.0000413
 5,-0.00000744,-0.00085135,0.00036448,0.00003160,-0.00098651,-0.0004079
 0,-0.00011421,-0.00023794,-0.00330478,-0.00111525,-0.01702059,0.009596
 56,0.00144561,0.00214912,0.00070098,0.00038860,0.00038166,-0.00073538,
 -0.00011141,-0.31713979,0.06938953,0.00426177,-0.00408117,0.00028798,-
 0.00020778,0.00251156,0.00088308,-0.00007283,-0.00000161,0.00000517,-0
 .00000122,0.00002609,-0.00000123,0.00002792,-0.00056445,-0.00091616,-0
 .00026200,-0.00049592,0.00027331,0.00005117,-0.00000240,-0.00000412,0.
 00000080,-0.00000399,-0.00000032,-0.00000020,-0.00000368,0.00000330,-0
 .00000079,0.00000198,0.00001074,-0.00000569,-0.00001843,-0.00012484,-0
 .00003672,0.00078393,0.00009437,0.00027544,0.33562518,0.00000225,0.000
 00039,0.00000015,0.00000091,0.00000256,0.00000045,0.00000168,-0.000002
 46,0.00000168,-0.00000103,0.00000203,0.00000002,-0.00000360,0.00000546
 ,-0.00000170,-0.00000150,-0.00000667,-0.00000589,-0.00000262,0.0000213
 0,-0.00000617,0.00001279,0.00000013,0.00000142,-0.00001244,-0.00001456
 ,0.00000369,0.00000462,0.00000066,0.00000059,-0.00003630,-0.00002382,0
 .00002819,-0.00005612,0.00005153,0.00000867,-0.00000624,0.00000041,-0.
 00000221,-0.00007116,-0.00033685,-0.00012175,-0.00000072,0.00000232,0.
 00000269,0.00003147,-0.00000673,0.00001267,-0.00109443,0.00016265,0.00
 001344,-0.00059448,0.00022882,0.00008628,-0.00233426,-0.00211018,-0.00
 205437,-0.02017202,0.01042938,0.00084742,0.00138818,0.00171416,0.00122
 777,-0.00023048,-0.00104061,0.00000328,0.06835903,-0.07637234,-0.00760
 543,0.02913138,-0.00269328,0.00004193,-0.00022814,-0.00408816,-0.00292
 488,-0.00000058,-0.00000099,-0.00000031,-0.00000124,-0.00001488,-0.000
 01731,0.00019874,-0.00040424,-0.00014230,0.00169029,-0.00078448,-0.000
 26089,0.00000008,0.00000072,-0.00000021,0.00000104,0.00000006,-0.00000
 012,0.00000071,-0.00000101,0.00000001,-0.00000063,-0.00000450,-0.00000
 338,0.00008772,0.00027833,0.00011497,-0.00040165,0.00073979,0.00124741
 ,-0.07576221,0.07426001,0.00000346,0.00000002,-0.00000017,0.00000001,0
 .00000164,-0.00000242,-0.00000046,-0.00000235,-0.00000177,0.00000091,0
 .00000092,-0.00000110,0.00000383,-0.00000010,0.00000117,-0.00000576,0.
 00000082,0.00000855,0.00001162,0.00003470,0.00000051,0.00000050,0.0000
 0106,-0.00000281,0.00001675,-0.00003544,0.00001079,-0.00002076,0.00001
 404,-0.00001191,-0.00003075,-0.00001875,-0.00003552,0.00001288,0.00003
 548,-0.00006313,0.00000994,0.00000444,-0.00000047,-0.00009512,-0.00024
 006,0.00022875,-0.00001030,0.00000616,-0.00000615,-0.00000021,0.000023
 98,-0.00001490,-0.00025371,0.00019983,-0.00012108,-0.00019239,0.000108
 86,-0.00034713,-0.00053520,-0.00238139,0.00505483,-0.00651772,0.001934
 94,0.00329588,0.00061588,0.00118467,-0.00257597,0.00011464,0.00020302,
 -0.00098682,0.00407909,-0.00705623,-0.03418872,0.00714745,-0.00145706,
 0.00216492,-0.00038722,-0.00305267,0.00709571,0.00000024,-0.00000056,0
 .00000307,-0.00001157,-0.00000554,0.00001624,0.00004362,-0.00022002,0.
 00005432,0.00037992,-0.00017973,0.00017200,0.00000033,0.00000087,0.000
 00054,0.00000038,0.00000013,0.00000074,0.00000015,-0.00000023,0.000000
 92,0.00000205,0.00000216,0.00001094,0.00000621,0.00008115,-0.00006296,
 0.00010846,0.00125908,-0.00402594,-0.00451908,0.00931147,0.02504604,0.
 00000853,-0.00000018,0.00000090,0.00000185,0.00000847,-0.00000069,0.00
 000516,-0.00000702,0.00000179,-0.00000267,0.00000801,-0.00000189,0.000
 00057,0.00000591,-0.00000025,0.00000381,-0.00000306,-0.00000056,0.0000
 4213,0.00002291,0.00000229,0.00002681,-0.00000210,0.00000135,-0.000024
 11,-0.00006920,0.00001805,-0.00000728,0.00002516,-0.00000844,-0.000138
 54,0.00004443,0.00002671,0.00010634,-0.00001395,0.00005567,0.00000402,
 -0.00040681,-0.00016951,0.00004427,0.00021174,0.00016453,-0.00001799,0
 .00004331,0.00003238,-0.00127266,-0.00023527,-0.00090773,0.00013280,-0
 .00051531,-0.00020474,-0.00035859,0.00033779,0.00003657,-0.00174606,0.
 00102566,0.00020202,0.00209231,0.00020111,0.00029857,-0.00005265,0.000
 08925,0.00004477,-0.31342717,0.07780010,0.02110977,0.00046990,-0.00055
 969,-0.00016985,-0.00124010,-0.00377190,-0.00093424,-0.01892323,0.0102
 5529,0.00265411,-0.00000103,-0.00000280,0.00000062,-0.00001066,-0.0008
 1726,-0.00041635,0.00006641,0.00003172,0.00000376,0.00152486,0.0009512
 3,0.00025889,0.00000107,0.00000228,-0.00000033,0.00000241,0.00000050,0
 .00000011,0.00000236,-0.00000169,0.00000035,-0.00000637,-0.00001441,-0
 .00000345,0.00030373,0.00005924,-0.00002226,-0.00092249,0.00031744,0.0
 0000935,-0.00008015,0.00005156,0.00001121,0.33342223,0.00001839,-0.000
 00949,0.00000460,0.00001563,0.00003569,-0.00000572,0.00000512,-0.00000
 726,0.00000169,-0.00001548,0.00001236,-0.00000506,0.00000609,-0.000008
 88,0.00000088,0.00002582,-0.00001242,0.00002423,-0.00014502,0.00007012
 ,-0.00007112,0.00004030,0.00003567,0.00000106,-0.00001938,-0.00012481,
 0.00000924,-0.00000519,0.00007649,-0.00000702,0.00006305,0.00025047,-0
 .00005516,-0.00011661,0.00040355,-0.00006150,-0.00168222,-0.00024304,-
 0.00014980,0.00106425,-0.00167254,-0.00005197,0.00052382,-0.00023985,0
 .00013993,0.00041663,0.00108993,0.00073873,-0.00108741,0.00139507,0.00
 105484,0.00090600,0.00001158,0.00019380,0.02832129,-0.00219806,-0.0006
 0719,-0.00041104,-0.00354090,-0.00276253,0.00127161,-0.00087949,-0.000
 19597,0.07916885,-0.07996106,-0.01356431,-0.00021580,-0.00116682,-0.00
 003250,-0.00272736,-0.00227459,-0.00229537,-0.01953089,0.01023972,0.00
 132628,0.00000411,-0.00000605,0.00000081,-0.00065287,-0.00014434,-0.00
 152045,-0.00008191,-0.00047070,-0.00015477,0.00072064,0.00102228,0.001
 26665,0.00000340,0.00000608,-0.00000145,0.00000772,0.00000223,-0.00000
 004,0.00000692,-0.00000553,0.00000145,0.00003614,0.00001324,-0.0000319
 5,0.00026229,0.00004064,0.00022872,-0.00110622,0.00038592,-0.00002047,
 0.00007859,0.00001661,0.00027522,-0.08510151,0.07788130,0.00000448,-0.
 00001054,0.00000085,0.00001668,0.00002323,-0.00000404,0.00000147,0.000
 00228,-0.00000134,-0.00001512,0.00000602,-0.00000554,0.00000902,-0.000
 02938,0.00001171,0.00005714,-0.00001331,-0.00001908,-0.00018044,0.0000
 1239,-0.00002422,-0.00000702,0.00002654,-0.00002076,0.00000346,-0.0000
 1833,0.00005465,0.00000216,0.00003964,-0.00002745,0.00030090,0.0001512
 9,0.00000388,-0.00026641,0.00018863,0.00002646,-0.00100286,0.00001189,
 -0.00000916,0.00093053,-0.00057193,-0.00004866,0.00032582,-0.00006927,
 0.00001448,0.00033864,0.00021987,-0.00004499,-0.00064743,0.00086982,-0
 .00280849,0.00022362,0.00006283,-0.00022553,0.00706492,-0.00004476,0.0
 0116738,-0.00031614,-0.00239347,0.00602009,0.00027029,-0.00021986,-0.0
 0000898,0.02350796,-0.01425125,-0.03549518,0.00002586,-0.00001513,-0.0
 0121014,-0.00107542,-0.00247993,0.00529100,-0.00622083,0.00156756,0.00
 515996,0.00000322,0.00000005,0.00000470,-0.00120216,-0.00121133,-0.001
 05489,-0.00003811,-0.00017211,0.00026918,0.00025814,0.00142759,-0.0032
 4580,0.00000182,0.00000366,0.00000135,0.00000350,0.00000157,0.00000093
 ,0.00000054,-0.00000149,0.00000351,0.00000946,0.00001602,0.00000804,0.
 00007553,0.00022457,-0.00076409,-0.00036111,0.00008637,0.00010647,0.00
 005565,0.00022346,-0.00083042,-0.02209762,0.01638852,0.02755179,-0.004
 95500,-0.00027330,-0.00110520,-0.00672553,-0.02601850,0.00475141,-0.00
 091143,0.00107336,-0.00026877,-0.10541888,-0.10818657,0.01849837,-0.00
 196083,0.00279577,-0.00150717,0.01307420,0.01915667,-0.00352081,0.0012
 8154,-0.00178555,0.00088596,-0.00025566,0.00120590,-0.00031753,0.00084
 383,0.00174571,-0.00027312,0.00000220,-0.00048126,0.00010026,0.0002289
 7,-0.00111511,0.00028008,-0.00115565,-0.00098450,-0.00006936,-0.007592
 64,0.00447784,-0.00239267,-0.00054026,0.00204032,-0.00051802,-0.000132
 06,-0.00590563,0.00169460,0.00379730,-0.00037264,0.00090207,-0.0000309
 7,-0.00015361,0.00006875,0.00003437,-0.00000378,0.00006412,-0.00000220
 ,0.00005315,-0.00001352,-0.00001714,0.00006577,0.00002642,-0.00004186,
 -0.00006988,-0.00005519,-0.00001526,0.00000876,0.00002140,0.00000546,-
 0.00002564,-0.00000328,-0.00001302,0.00002502,0.00000475,0.00003243,-0
 .00007355,-0.00000856,-0.00036522,0.00027785,-0.00007024,-0.00002529,-
 0.00014768,-0.00005553,-0.00000033,0.00000373,-0.00001129,-0.00000526,
 0.00004989,0.00001490,0.00006526,-0.00000192,0.00010879,-0.00043124,-0
 .00113303,0.00022458,0.00109133,0.00044455,0.00039660,0.00007245,-0.00
 003053,0.00000762,0.00000067,-0.00001178,-0.00000501,0.00000648,0.0000
 0325,-0.00000030,0.00000404,-0.00000079,0.00000009,-0.00000176,-0.0000
 4375,-0.00003351,0.11006586,0.00047185,0.00165264,0.00132061,0.0012914
 5,0.00443679,-0.00005399,0.00044064,0.00033291,-0.00019648,-0.10327219
 ,-0.29381185,0.04818037,0.00317290,-0.00091212,0.00226277,-0.01067707,
 -0.01669233,0.00366264,-0.00018807,0.00062911,-0.00092533,-0.00077514,
 -0.00088289,0.00011157,-0.00018593,0.00001779,-0.00002417,0.00006674,0
 .00003607,0.00000533,0.00084252,-0.00067980,0.00006103,-0.00041514,-0.
 00025236,0.00008235,-0.00058804,0.00143897,-0.00048702,-0.00015355,0.0
 0070849,-0.00014474,-0.00458091,-0.00504769,0.00051035,0.00091991,-0.0
 0005837,0.00037984,-0.00007607,-0.00001454,-0.00002245,0.00008232,-0.0
 0003283,0.00001997,0.00001736,0.00006438,-0.00000050,-0.00002763,0.000
 04882,0.00001634,-0.00009279,-0.00005638,-0.00003238,-0.00001938,-0.00
 001983,0.00000114,0.00000665,-0.00000355,0.00000102,-0.00000291,-0.000
 00419,-0.00000175,0.00000616,0.00003126,0.00001176,0.00026595,-0.00006
 060,-0.00000299,0.00000808,-0.00002182,-0.00000343,0.00000465,-0.00000
 720,-0.00000276,0.00001143,-0.00003972,-0.00000825,-0.00007684,-0.0000
 5819,-0.00024739,0.00027957,0.00020737,0.00003353,-0.00015157,0.000405
 87,-0.00106341,-0.00000209,-0.00001486,-0.00000216,-0.00000147,0.00000
 380,-0.00000058,0.00000003,-0.00000217,-0.00000102,-0.00000030,-0.0000
 0032,0.00000044,0.00000054,-0.00000562,-0.00000769,0.11339710,0.308670
 36,-0.00131664,0.00129222,0.00671074,-0.00152945,-0.00266450,0.0048119
 1,-0.00003754,-0.00015651,-0.00063994,0.01741388,0.04789890,-0.0498302
 6,-0.00172233,0.00205534,0.00681636,0.00357786,0.00650240,0.00286033,0
 .00030781,-0.00111782,-0.00313467,0.00013224,0.00034130,0.00000382,0.0
 0011378,0.00020022,0.00006729,-0.00001825,-0.00005987,0.00000875,0.000
 05905,0.00002910,-0.00075176,-0.00015864,0.00007807,0.00052201,-0.0005
 7312,-0.00023016,-0.00014444,-0.00007642,0.00013206,0.00013143,0.00112
 589,0.00034875,-0.00153654,0.00000610,0.00016599,0.00084382,0.00004065
 ,-0.00005419,-0.00021183,0.00000058,0.00002846,-0.00003373,-0.00001499
 ,0.00000387,0.00000024,0.00000209,-0.00000518,0.00000092,0.00001821,-0
 .00000554,0.00000827,0.00000013,0.00001090,-0.00000292,0.00000232,0.00
 000206,0.00000013,0.00000347,0.00000037,-0.00000352,-0.00000464,-0.000
 00836,0.00000071,-0.00007826,-0.00000300,-0.00020827,-0.00001868,0.000
 00241,0.00004822,-0.00000034,-0.00000065,0.00001653,0.00000264,0.00000
 591,-0.00000517,0.00013162,-0.00022813,-0.00102492,-0.00011152,-0.0001
 4728,0.00004758,0.00054605,-0.00097273,-0.00384327,0.00000854,0.000002
 25,-0.00000934,-0.00000098,-0.00000279,0.00000429,0.00000115,0.0000004
 6,0.00000126,0.00000092,-0.00000103,0.00000204,-0.00000209,-0.00000498
 ,0.00000387,-0.01783322,-0.05343685,0.03846683,0.00000975,0.00000126,0
 .00000175,0.00000709,0.00000075,-0.00000343,0.00001334,-0.00001367,-0.
 00000124,0.00000399,0.00000623,0.00000011,-0.00002911,0.00007660,-0.00
 001253,-0.00004807,-0.00001730,0.00001038,0.00004313,0.00003140,0.0000
 3434,0.00018433,0.00000780,0.00002435,-0.00033153,0.00005729,-0.000076
 96,0.00026869,-0.00003183,-0.00000102,-0.00027924,-0.00026906,-0.00018
 883,-0.00013746,-0.00000422,-0.00008485,-0.00000412,0.00002409,0.00002
 473,0.00110441,0.00020415,0.00014529,0.00004384,-0.00010158,0.00002912
 ,0.00005480,-0.00049948,-0.00008651,0.01124160,0.01554920,0.00459921,-
 0.06562295,-0.03211757,-0.01082827,-0.00320985,0.00382946,0.00046467,-
 0.00564091,0.00104710,-0.00005785,-0.00101747,-0.03313886,-0.00823374,
 0.00120397,0.00004574,-0.00000404,0.00082820,-0.00163775,-0.00043992,-
 0.00069808,0.00013168,0.00000738,0.00008062,0.00031420,0.00013477,-0.0
 0000361,-0.00001077,0.00000570,0.00010532,0.00001722,0.00007141,0.0008
 6258,0.00027874,0.00010323,0.00010036,0.00012696,0.00003959,0.00000139
 ,0.00000447,-0.00000033,0.00000655,0.00000005,0.00000127,0.00000504,-0
 .00000388,0.00000166,-0.00065491,-0.00014020,0.00048203,-0.00001395,0.
 00004308,0.00000991,0.00004813,-0.00013654,-0.00001610,0.00001174,0.00
 005021,0.00001062,-0.00002800,-0.00002402,-0.00002663,-0.00000892,0.00
 000128,0.00000212,0.06149934,-0.00002104,0.00000571,-0.00000259,-0.000
 00606,-0.00001783,0.00000559,0.00000308,0.00001183,-0.00000124,0.00000
 969,-0.00001624,0.00000334,-0.00003151,0.00001495,-0.00000544,0.000004
 41,-0.00000058,0.00000291,-0.00005351,-0.00014474,0.00001969,0.0000072
 8,-0.00001458,-0.00000589,-0.00008441,0.00023964,-0.00003653,0.0001171
 8,-0.00016565,0.00002631,0.00031293,0.00009979,0.00010694,-0.00010031,
 0.00009447,0.00015036,-0.00015892,-0.00010203,-0.00005028,-0.00109840,
 -0.00057756,0.00071252,0.00009048,0.00003299,0.00001310,0.00033827,0.0
 0021734,0.00010558,-0.00706428,-0.00784899,-0.00336089,-0.04035470,-0.
 32927564,-0.08066232,0.00229544,-0.00150489,-0.00146695,-0.00030744,0.
 00169710,-0.00035292,0.00114769,-0.00392898,-0.00066315,-0.00075533,-0
 .00022383,-0.00028066,-0.00007001,-0.00028780,-0.00060149,-0.00023781,
 0.00028582,0.00010605,0.00051870,-0.00008024,0.00005666,-0.00000566,0.
 00000597,-0.00000233,-0.00004166,-0.00000270,-0.00006350,-0.00047147,-
 0.00011364,0.00043904,-0.00009728,-0.00016434,-0.00002060,-0.00000346,
 -0.00000525,0.00000059,-0.00000352,-0.00000045,-0.00000127,-0.00000419
 ,0.00000218,-0.00000149,-0.00018115,0.00034310,-0.00021325,0.00001373,
 -0.00002402,0.00000638,-0.00000499,-0.00004937,0.00010151,-0.00002242,
 -0.00001124,-0.00003499,0.00002854,-0.00001749,-0.00004399,-0.00000565
 ,-0.00000538,-0.00000147,0.04629778,0.34153257,0.00001506,-0.00000452,
 -0.00000063,-0.00000409,0.00000791,-0.00000516,-0.00001774,-0.00000106
 ,-0.00000599,0.00000284,-0.00000100,0.00000048,0.00004199,-0.00003060,
 0.00001666,-0.00002897,0.00001118,-0.00001890,0.00012797,0.00015206,-0
 .00002114,-0.00010225,0.00000568,-0.00000528,0.00026116,-0.00023788,0.
 00006351,-0.00022607,0.00010650,-0.00012854,-0.00024136,0.00022039,-0.
 00015717,0.00044070,-0.00070637,-0.00001951,0.00007200,0.00011424,0.00
 013910,0.00111650,0.00090206,-0.00264663,-0.00009985,0.00005286,-0.000
 06971,-0.00037822,0.00017548,-0.00010473,-0.00266330,-0.00197395,0.002
 88888,-0.01277213,-0.08138185,-0.05050226,0.00015793,-0.00120635,0.004
 26768,-0.00043565,-0.00056342,0.00265631,0.00081719,-0.00191306,-0.001
 14755,-0.00007529,-0.00018419,0.00100939,0.00003773,-0.00044587,0.0020
 9130,0.00000207,-0.00005459,-0.00019978,-0.00008557,0.00006756,-0.0002
 2239,0.00000482,0.00000231,0.00001651,-0.00007164,-0.00000573,0.000012
 15,-0.00007044,0.00051450,-0.00185073,0.00001230,0.00000463,-0.0001214
 9,0.00000144,0.00000203,0.00000292,-0.00000116,0.00000039,0.00000208,-
 0.00000015,0.00000030,0.00000212,0.00027831,0.00031507,0.00038938,0.00
 000170,0.00001993,-0.00004883,0.00002270,0.00010148,-0.00043779,-0.000
 01689,-0.00002971,0.00011140,0.00000625,-0.00005733,0.00014843,0.00001
 154,0.00000426,0.00000322,0.01385859,0.08601667,0.04389267\\-0.0000000
 8,0.00000015,-0.00000006,-0.00000007,0.00000004,0.00000005,-0.00000007
 ,0.,-0.00000018,-0.00000028,0.00000023,0.,0.00000001,-0.00000002,-0.00
 000016,0.00000003,0.00000016,-0.00000001,0.00000027,-0.00000067,0.0000
 0003,0.00000053,0.00000010,-0.00000026,-0.00000085,0.00000045,-0.00000
 057,0.00000017,-0.00000014,-0.00000030,0.00000092,0.00000003,-0.000000
 15,-0.00000041,0.00000071,-0.00000048,-0.00000021,0.00000023,0.0000001
 3,0.00000036,-0.00000050,0.00000046,0.00000021,-0.00000009,0.00000023,
 0.00000005,0.,0.00000031,-0.00000038,-0.00000025,-0.00000034,0.0000007
 5,0.00000062,0.00000016,0.00000012,-0.00000020,-0.00000020,-0.00000006
 ,-0.00000026,0.00000003,-0.00000111,-0.00000021,-0.00000016,-0.0000001
 9,0.00000013,0.00000021,-0.00000007,-0.00000014,0.00000003,-0.00000004
 ,-0.00000002,0.00000024,0.00000024,-0.00000031,0.00000025,-0.00000002,
 -0.00000017,-0.00000037,0.00000016,0.00000020,0.00000005,-0.00000021,0
 .00000012,-0.00000021,-0.00000006,-0.00000011,0.00000043,0.00000002,0.
 ,-0.00000026,0.00000006,0.00000007,-0.00000002,0.00000004,0.00000005,0
 .00000019,0.00000003,-0.00000004,0.,0.00000008,-0.00000008,0.00000051,
 0.00000004,-0.00000011,0.00000030,0.,-0.00000005,0.00000005,-0.0000000
 3,-0.00000030,0.00000036,0.00000003,0.00000014,0.00000014,-0.00000001,
 0.00000023,-0.00000041\\\@


 EDUCATION WITHOUT COMMON SENSE IS A LOAD OF BOOKS ON THE BACK OF AN ASS.
 Job cpu time:       0 days 22 hours 48 minutes 50.6 seconds.
 Elapsed time:       0 days  0 hours 57 minutes  4.4 seconds.
 File lengths (MBytes):  RWF=   1198 Int=      0 D2E=      0 Chk=     26 Scr=      1
 Normal termination of Gaussian 16 at Sun Mar  2 20:14:54 2025.
