 Entering Link 1 = C:\G09W\l1.exe PID=      1356.
  
 Copyright (c) 1988,1990,1992,1993,1995,1998,2003,2009, Gaussian, Inc.
                  All Rights Reserved.
  
 This is part of the Gaussian(R) 09 program.  It is based on
 the Gaussian(R) 03 system (copyright 2003, Gaussian, Inc.),
 the Gaussian(R) 98 system (copyright 1998, Gaussian, Inc.),
 the Gaussian(R) 94 system (copyright 1995, Gaussian, Inc.),
 the Gaussian 92(TM) system (copyright 1992, Gaussian, Inc.),
 the Gaussian 90(TM) system (copyright 1990, Gaussian, Inc.),
 the Gaussian 88(TM) system (copyright 1988, Gaussian, Inc.),
 the Gaussian 86(TM) system (copyright 1986, Carnegie Mellon
 University), and the Gaussian 82(TM) system (copyright 1983,
 Carnegie Mellon University). Gaussian is a federally registered
 trademark of Gaussian, Inc.
  
 This software contains proprietary and confidential information,
 including trade secrets, belonging to Gaussian, Inc.
  
 This software is provided under written license and may be
 used, copied, transmitted, or stored only in accord with that
 written license.
  
 The following legend is applicable only to US Government
 contracts under FAR:
  
                    RESTRICTED RIGHTS LEGEND
  
 Use, reproduction and disclosure by the US Government is
 subject to restrictions as set forth in subparagraphs (a)
 and (c) of the Commercial Computer Software - Restricted
 Rights clause in FAR 52.227-19.
  
 Gaussian, Inc.
 340 Quinnipiac St., Bldg. 40, Wallingford CT 06492
  
  
 ---------------------------------------------------------------
 Warning -- This program may not be used in any manner that
 competes with the business of Gaussian, Inc. or will provide
 assistance to any competitor of Gaussian, Inc.  The licensee
 of this program is prohibited from giving any competitor of
 Gaussian, Inc. access to this program.  By using this program,
 the user acknowledges that Gaussian, Inc. is engaged in the
 business of creating and licensing software in the field of
 computational chemistry and represents and warrants to the
 licensee that it is not a competitor of Gaussian, Inc. and that
 it will not use this program in any manner prohibited above.
 ---------------------------------------------------------------
  

 Cite this work as:
 Gaussian 09, Revision A.02,
 M. J. Frisch, G. W. Trucks, H. B. Schlegel, G. E. Scuseria, 
 M. A. Robb, J. R. Cheeseman, G. Scalmani, V. Barone, B. Mennucci, 
 G. A. Petersson, H. Nakatsuji, M. Caricato, X. Li, H. P. Hratchian, 
 A. F. Izmaylov, J. Bloino, G. Zheng, J. L. Sonnenberg, M. Hada, 
 M. Ehara, K. Toyota, R. Fukuda, J. Hasegawa, M. Ishida, T. Nakajima, 
 Y. Honda, O. Kitao, H. Nakai, T. Vreven, J. A. Montgomery, Jr., 
 J. E. Peralta, F. Ogliaro, M. Bearpark, J. J. Heyd, E. Brothers, 
 K. N. Kudin, V. N. Staroverov, R. Kobayashi, J. Normand, 
 K. Raghavachari, A. Rendell, J. C. Burant, S. S. Iyengar, J. Tomasi, 
 M. Cossi, N. Rega, J. M. Millam, M. Klene, J. E. Knox, J. B. Cross, 
 V. Bakken, C. Adamo, J. Jaramillo, R. Gomperts, R. E. Stratmann, 
 O. Yazyev, A. J. Austin, R. Cammi, C. Pomelli, J. W. Ochterski, 
 R. L. Martin, K. Morokuma, V. G. Zakrzewski, G. A. Voth, 
 P. Salvador, J. J. Dannenberg, S. Dapprich, A. D. Daniels, 
 O. Farkas, J. B. Foresman, J. V. Ortiz, J. Cioslowski, 
 and D. J. Fox, Gaussian, Inc., Wallingford CT, 2009.
 
 ******************************************
 Gaussian 09:  IA32W-G09RevA.02 11-Jun-2009
                26-Jan-2020 
 ******************************************
 -------------------------------------------------------------
 # opt freq=raman b3lyp/6-311++g(d,p) nosymm geom=connectivity
 -------------------------------------------------------------
 1/14=-1,18=20,19=15,26=3,38=1,57=2/1,3;
 2/9=110,12=2,15=1,17=6,18=5,40=1/2;
 3/5=4,6=6,7=1111,11=2,16=1,25=1,30=1,71=1,74=-5/1,2,3;
 4//1;
 5/5=2,38=5/2;
 6/7=2,8=2,9=2,10=2,28=1/1;
 7/30=1/1,2,3,16;
 1/14=-1,18=20,19=15/3(2);
 2/9=110,15=1/2;
 99//99;
 2/9=110,15=1/2;
 3/5=4,6=6,7=1111,11=2,16=1,25=1,30=1,71=1,74=-5/1,2,3;
 4/5=5,16=3/1;
 5/5=2,38=5/2;
 7/30=1/1,2,3,16;
 1/14=-1,18=20,19=15/3(-5);
 2/9=110,15=1/2;
 6/7=2,8=2,9=2,10=2,19=2,28=1/1;
 99/9=1/99;
 -------------------
 Title Card Required
 -------------------
 Symbolic Z-matrix:
 Charge =  0 Multiplicity = 1
 C                    -4.16248   1.30161   0.00207 
 C                    -2.91837   0.6725    0.00007 
 C                    -2.82319  -0.73658  -0.00092 
 C                    -3.96657  -1.53279   0.00032 
 C                    -5.20128  -0.88605   0.00256 
 C                    -5.30857   0.51372   0.00337 
 H                    -4.22034   2.38402   0.00272 
 H                    -3.90229  -2.61454  -0.00042 
 H                    -6.1052   -1.48514   0.00366 
 H                    -6.28819   0.97583   0.00504 
 C                    -0.67947  -0.00127  -0.00312 
 C                     0.6795    0.00136  -0.00229 
 C                     2.91836  -0.67248   0.00027 
 C                     4.16248  -1.30167   0.00169 
 C                     2.82322   0.73658  -0.00026 
 C                     3.96664   1.53278   0.00064 
 H                     3.90239   2.61453   0.00022 
 C                     5.2013    0.88601   0.0021 
 H                     6.10526   1.48503   0.00281 
 C                     5.30855  -0.51381   0.00262 
 H                     6.28819  -0.97588   0.00375 
 H                     4.2203   -2.38407   0.00208 
 N                     1.48826   1.11878  -0.00175 
 H                     1.11322   2.05753  -0.0026 
 N                    -1.48822  -1.11877  -0.00399 
 H                    -1.1131   -2.05747   0.00013 
 C                    -1.55256   1.20946  -0.00159 
 C                     1.55252  -1.2094   -0.00091 
 O                    -1.14638   2.36806  -0.00152 
 O                     1.14626  -2.36803  -0.00057 
 

 GradGradGradGradGradGradGradGradGradGradGradGradGradGradGradGradGradGrad
 Berny optimization.
 Initialization pass.
                           ----------------------------
                           !    Initial Parameters    !
                           ! (Angstroms and Degrees)  !
 --------------------------                            --------------------------
 ! Name  Definition              Value          Derivative Info.                !
 --------------------------------------------------------------------------------
 ! R1    R(1,2)                  1.3941         estimate D2E/DX2                !
 ! R2    R(1,6)                  1.3908         estimate D2E/DX2                !
 ! R3    R(1,7)                  1.084          estimate D2E/DX2                !
 ! R4    R(2,3)                  1.4123         estimate D2E/DX2                !
 ! R5    R(2,27)                 1.4676         estimate D2E/DX2                !
 ! R6    R(3,4)                  1.3933         estimate D2E/DX2                !
 ! R7    R(3,25)                 1.3886         estimate D2E/DX2                !
 ! R8    R(4,5)                  1.3938         estimate D2E/DX2                !
 ! R9    R(4,8)                  1.0837         estimate D2E/DX2                !
 ! R10   R(5,6)                  1.4039         estimate D2E/DX2                !
 ! R11   R(5,9)                  1.0844         estimate D2E/DX2                !
 ! R12   R(6,10)                 1.0831         estimate D2E/DX2                !
 ! R13   R(11,12)                1.359          estimate D2E/DX2                !
 ! R14   R(11,25)                1.3794         estimate D2E/DX2                !
 ! R15   R(11,27)                1.4927         estimate D2E/DX2                !
 ! R16   R(12,23)                1.3794         estimate D2E/DX2                !
 ! R17   R(12,28)                1.4927         estimate D2E/DX2                !
 ! R18   R(13,14)                1.3942         estimate D2E/DX2                !
 ! R19   R(13,15)                1.4123         estimate D2E/DX2                !
 ! R20   R(13,28)                1.4676         estimate D2E/DX2                !
 ! R21   R(14,20)                1.3908         estimate D2E/DX2                !
 ! R22   R(14,22)                1.0839         estimate D2E/DX2                !
 ! R23   R(15,16)                1.3933         estimate D2E/DX2                !
 ! R24   R(15,23)                1.3886         estimate D2E/DX2                !
 ! R25   R(16,17)                1.0837         estimate D2E/DX2                !
 ! R26   R(16,18)                1.3938         estimate D2E/DX2                !
 ! R27   R(18,19)                1.0844         estimate D2E/DX2                !
 ! R28   R(18,20)                1.4039         estimate D2E/DX2                !
 ! R29   R(20,21)                1.0831         estimate D2E/DX2                !
 ! R30   R(23,24)                1.0109         estimate D2E/DX2                !
 ! R31   R(25,26)                1.0109         estimate D2E/DX2                !
 ! R32   R(27,29)                1.2277         estimate D2E/DX2                !
 ! R33   R(28,30)                1.2278         estimate D2E/DX2                !
 ! A1    A(2,1,6)              118.6688         estimate D2E/DX2                !
 ! A2    A(2,1,7)              119.8846         estimate D2E/DX2                !
 ! A3    A(6,1,7)              121.4467         estimate D2E/DX2                !
 ! A4    A(1,2,3)              120.6888         estimate D2E/DX2                !
 ! A5    A(1,2,27)             131.7134         estimate D2E/DX2                !
 ! A6    A(3,2,27)             107.5978         estimate D2E/DX2                !
 ! A7    A(2,3,4)              120.9877         estimate D2E/DX2                !
 ! A8    A(2,3,25)             109.8398         estimate D2E/DX2                !
 ! A9    A(4,3,25)             129.1725         estimate D2E/DX2                !
 ! A10   A(3,4,5)              117.5028         estimate D2E/DX2                !
 ! A11   A(3,4,8)              121.4516         estimate D2E/DX2                !
 ! A12   A(5,4,8)              121.0456         estimate D2E/DX2                !
 ! A13   A(4,5,6)              122.0283         estimate D2E/DX2                !
 ! A14   A(4,5,9)              118.8194         estimate D2E/DX2                !
 ! A15   A(6,5,9)              119.1522         estimate D2E/DX2                !
 ! A16   A(1,6,5)              120.1236         estimate D2E/DX2                !
 ! A17   A(1,6,10)             120.239          estimate D2E/DX2                !
 ! A18   A(5,6,10)             119.6374         estimate D2E/DX2                !
 ! A19   A(12,11,25)           126.005          estimate D2E/DX2                !
 ! A20   A(12,11,27)           125.6854         estimate D2E/DX2                !
 ! A21   A(25,11,27)           108.3096         estimate D2E/DX2                !
 ! A22   A(11,12,23)           126.007          estimate D2E/DX2                !
 ! A23   A(11,12,28)           125.6832         estimate D2E/DX2                !
 ! A24   A(23,12,28)           108.3098         estimate D2E/DX2                !
 ! A25   A(14,13,15)           120.6897         estimate D2E/DX2                !
 ! A26   A(14,13,28)           131.713          estimate D2E/DX2                !
 ! A27   A(15,13,28)           107.5973         estimate D2E/DX2                !
 ! A28   A(13,14,20)           118.6668         estimate D2E/DX2                !
 ! A29   A(13,14,22)           119.8848         estimate D2E/DX2                !
 ! A30   A(20,14,22)           121.4484         estimate D2E/DX2                !
 ! A31   A(13,15,16)           120.9881         estimate D2E/DX2                !
 ! A32   A(13,15,23)           109.8391         estimate D2E/DX2                !
 ! A33   A(16,15,23)           129.1728         estimate D2E/DX2                !
 ! A34   A(15,16,17)           121.4516         estimate D2E/DX2                !
 ! A35   A(15,16,18)           117.5014         estimate D2E/DX2                !
 ! A36   A(17,16,18)           121.047          estimate D2E/DX2                !
 ! A37   A(16,18,19)           118.8213         estimate D2E/DX2                !
 ! A38   A(16,18,20)           122.0294         estimate D2E/DX2                !
 ! A39   A(19,18,20)           119.1493         estimate D2E/DX2                !
 ! A40   A(14,20,18)           120.1246         estimate D2E/DX2                !
 ! A41   A(14,20,21)           120.2417         estimate D2E/DX2                !
 ! A42   A(18,20,21)           119.6338         estimate D2E/DX2                !
 ! A43   A(12,23,15)           109.9198         estimate D2E/DX2                !
 ! A44   A(12,23,24)           122.3267         estimate D2E/DX2                !
 ! A45   A(15,23,24)           127.7535         estimate D2E/DX2                !
 ! A46   A(3,25,11)            109.9184         estimate D2E/DX2                !
 ! A47   A(3,25,26)            127.7567         estimate D2E/DX2                !
 ! A48   A(11,25,26)           122.3231         estimate D2E/DX2                !
 ! A49   A(2,27,11)            104.3343         estimate D2E/DX2                !
 ! A50   A(2,27,29)            130.7817         estimate D2E/DX2                !
 ! A51   A(11,27,29)           124.884          estimate D2E/DX2                !
 ! A52   A(12,28,13)           104.334          estimate D2E/DX2                !
 ! A53   A(12,28,30)           124.8832         estimate D2E/DX2                !
 ! A54   A(13,28,30)           130.7828         estimate D2E/DX2                !
 ! D1    D(6,1,2,3)              0.0141         estimate D2E/DX2                !
 ! D2    D(6,1,2,27)          -179.9974         estimate D2E/DX2                !
 ! D3    D(7,1,2,3)           -179.9946         estimate D2E/DX2                !
 ! D4    D(7,1,2,27)            -0.0061         estimate D2E/DX2                !
 ! D5    D(2,1,6,5)             -0.0049         estimate D2E/DX2                !
 ! D6    D(2,1,6,10)           179.9932         estimate D2E/DX2                !
 ! D7    D(7,1,6,5)           -179.9961         estimate D2E/DX2                !
 ! D8    D(7,1,6,10)             0.002          estimate D2E/DX2                !
 ! D9    D(1,2,3,4)             -0.012          estimate D2E/DX2                !
 ! D10   D(1,2,3,25)           179.9519         estimate D2E/DX2                !
 ! D11   D(27,2,3,4)           179.997          estimate D2E/DX2                !
 ! D12   D(27,2,3,25)           -0.0392         estimate D2E/DX2                !
 ! D13   D(1,2,27,11)          179.9918         estimate D2E/DX2                !
 ! D14   D(1,2,27,29)            0.0077         estimate D2E/DX2                !
 ! D15   D(3,2,27,11)           -0.0186         estimate D2E/DX2                !
 ! D16   D(3,2,27,29)          179.9973         estimate D2E/DX2                !
 ! D17   D(2,3,4,5)              0.0004         estimate D2E/DX2                !
 ! D18   D(2,3,4,8)           -179.9995         estimate D2E/DX2                !
 ! D19   D(25,3,4,5)          -179.9558         estimate D2E/DX2                !
 ! D20   D(25,3,4,8)             0.0444         estimate D2E/DX2                !
 ! D21   D(2,3,25,11)            0.0868         estimate D2E/DX2                !
 ! D22   D(2,3,25,26)          179.6096         estimate D2E/DX2                !
 ! D23   D(4,3,25,11)         -179.9532         estimate D2E/DX2                !
 ! D24   D(4,3,25,26)           -0.4303         estimate D2E/DX2                !
 ! D25   D(3,4,5,6)              0.009          estimate D2E/DX2                !
 ! D26   D(3,4,5,9)           -179.9938         estimate D2E/DX2                !
 ! D27   D(8,4,5,6)           -179.9912         estimate D2E/DX2                !
 ! D28   D(8,4,5,9)              0.006          estimate D2E/DX2                !
 ! D29   D(4,5,6,1)             -0.0068         estimate D2E/DX2                !
 ! D30   D(4,5,6,10)           179.9951         estimate D2E/DX2                !
 ! D31   D(9,5,6,1)            179.996          estimate D2E/DX2                !
 ! D32   D(9,5,6,10)            -0.0022         estimate D2E/DX2                !
 ! D33   D(25,11,12,23)        179.9835         estimate D2E/DX2                !
 ! D34   D(25,11,12,28)         -0.0589         estimate D2E/DX2                !
 ! D35   D(27,11,12,23)         -0.0953         estimate D2E/DX2                !
 ! D36   D(27,11,12,28)        179.8623         estimate D2E/DX2                !
 ! D37   D(12,11,25,3)         179.8353         estimate D2E/DX2                !
 ! D38   D(12,11,25,26)          0.2817         estimate D2E/DX2                !
 ! D39   D(27,11,25,3)          -0.0973         estimate D2E/DX2                !
 ! D40   D(27,11,25,26)       -179.6509         estimate D2E/DX2                !
 ! D41   D(12,11,27,2)        -179.8628         estimate D2E/DX2                !
 ! D42   D(12,11,27,29)          0.1225         estimate D2E/DX2                !
 ! D43   D(25,11,27,2)           0.0701         estimate D2E/DX2                !
 ! D44   D(25,11,27,29)       -179.9446         estimate D2E/DX2                !
 ! D45   D(11,12,23,15)        179.9695         estimate D2E/DX2                !
 ! D46   D(11,12,23,24)         -0.044          estimate D2E/DX2                !
 ! D47   D(28,12,23,15)          0.0059         estimate D2E/DX2                !
 ! D48   D(28,12,23,24)        179.9923         estimate D2E/DX2                !
 ! D49   D(11,12,28,13)       -179.9713         estimate D2E/DX2                !
 ! D50   D(11,12,28,30)          0.0127         estimate D2E/DX2                !
 ! D51   D(23,12,28,13)         -0.0075         estimate D2E/DX2                !
 ! D52   D(23,12,28,30)        179.9765         estimate D2E/DX2                !
 ! D53   D(15,13,14,20)          0.0015         estimate D2E/DX2                !
 ! D54   D(15,13,14,22)        179.9995         estimate D2E/DX2                !
 ! D55   D(28,13,14,20)       -179.9976         estimate D2E/DX2                !
 ! D56   D(28,13,14,22)          0.0004         estimate D2E/DX2                !
 ! D57   D(14,13,15,16)          0.0            estimate D2E/DX2                !
 ! D58   D(14,13,15,23)        179.9976         estimate D2E/DX2                !
 ! D59   D(28,13,15,16)        179.9993         estimate D2E/DX2                !
 ! D60   D(28,13,15,23)         -0.0032         estimate D2E/DX2                !
 ! D61   D(14,13,28,12)       -179.9945         estimate D2E/DX2                !
 ! D62   D(14,13,28,30)          0.0229         estimate D2E/DX2                !
 ! D63   D(15,13,28,12)          0.0063         estimate D2E/DX2                !
 ! D64   D(15,13,28,30)       -179.9763         estimate D2E/DX2                !
 ! D65   D(13,14,20,18)         -0.0013         estimate D2E/DX2                !
 ! D66   D(13,14,20,21)        179.9988         estimate D2E/DX2                !
 ! D67   D(22,14,20,18)       -179.9992         estimate D2E/DX2                !
 ! D68   D(22,14,20,21)          0.0009         estimate D2E/DX2                !
 ! D69   D(13,15,16,17)        179.9982         estimate D2E/DX2                !
 ! D70   D(13,15,16,18)         -0.0018         estimate D2E/DX2                !
 ! D71   D(23,15,16,17)          0.0012         estimate D2E/DX2                !
 ! D72   D(23,15,16,18)       -179.9988         estimate D2E/DX2                !
 ! D73   D(13,15,23,12)         -0.0018         estimate D2E/DX2                !
 ! D74   D(13,15,23,24)       -179.9873         estimate D2E/DX2                !
 ! D75   D(16,15,23,12)        179.9955         estimate D2E/DX2                !
 ! D76   D(16,15,23,24)          0.01           estimate D2E/DX2                !
 ! D77   D(15,16,18,19)        179.9998         estimate D2E/DX2                !
 ! D78   D(15,16,18,20)          0.0021         estimate D2E/DX2                !
 ! D79   D(17,16,18,19)         -0.0001         estimate D2E/DX2                !
 ! D80   D(17,16,18,20)       -179.9979         estimate D2E/DX2                !
 ! D81   D(16,18,20,14)         -0.0006         estimate D2E/DX2                !
 ! D82   D(16,18,20,21)        179.9993         estimate D2E/DX2                !
 ! D83   D(19,18,20,14)       -179.9983         estimate D2E/DX2                !
 ! D84   D(19,18,20,21)          0.0016         estimate D2E/DX2                !
 --------------------------------------------------------------------------------
 Trust Radius=3.00D-01 FncErr=1.00D-07 GrdErr=1.00D-06
 Number of steps in this run= 180 maximum allowed number of steps= 180.
 GradGradGradGradGradGradGradGradGradGradGradGradGradGradGradGradGradGrad

                          Input orientation:                          
 ---------------------------------------------------------------------
 Center     Atomic      Atomic             Coordinates (Angstroms)
 Number     Number       Type             X           Y           Z
 ---------------------------------------------------------------------
      1          6           0       -4.162477    1.301612    0.002067
      2          6           0       -2.918370    0.672499    0.000067
      3          6           0       -2.823193   -0.736584   -0.000924
      4          6           0       -3.966566   -1.532787    0.000318
      5          6           0       -5.201284   -0.886049    0.002558
      6          6           0       -5.308574    0.513723    0.003368
      7          1           0       -4.220340    2.384017    0.002720
      8          1           0       -3.902293   -2.614538   -0.000421
      9          1           0       -6.105197   -1.485138    0.003661
     10          1           0       -6.288189    0.975830    0.005041
     11          6           0       -0.679465   -0.001274   -0.003124
     12          6           0        0.679496    0.001355   -0.002292
     13          6           0        2.918356   -0.672479    0.000265
     14          6           0        4.162480   -1.301667    0.001689
     15          6           0        2.823217    0.736578   -0.000255
     16          6           0        3.966638    1.532783    0.000638
     17          1           0        3.902385    2.614531    0.000218
     18          6           0        5.201296    0.886008    0.002096
     19          1           0        6.105256    1.485029    0.002809
     20          6           0        5.308554   -0.513810    0.002620
     21          1           0        6.288188   -0.975881    0.003751
     22          1           0        4.220301   -2.384072    0.002081
     23          7           0        1.488259    1.118775   -0.001750
     24          1           0        1.113221    2.057525   -0.002596
     25          7           0       -1.488219   -1.118765   -0.003987
     26          1           0       -1.113102   -2.057465    0.000133
     27          6           0       -1.552557    1.209463   -0.001592
     28          6           0        1.552523   -1.209395   -0.000910
     29          8           0       -1.146376    2.368058   -0.001524
     30          8           0        1.146257   -2.368030   -0.000572
 ---------------------------------------------------------------------
                    Distance matrix (angstroms):
                    1          2          3          4          5
     1  C    0.000000
     2  C    1.394127   0.000000
     3  C    2.438839   1.412294   0.000000
     4  C    2.841162   2.441721   1.393285   0.000000
     5  C    2.421772   2.764195   2.382786   1.393845   0.000000
     6  C    1.390794   2.395474   2.782158   2.447284   1.403878
     7  H    1.083951   2.150448   3.419091   3.925017   3.414027
     8  H    3.924784   3.431139   2.165910   1.083659   2.162189
     9  H    3.397078   3.848542   3.366289   2.139164   1.084420
    10  H    2.150533   3.383447   3.865048   3.418057   2.155913
    11  C    3.718724   2.338092   2.266331   3.626372   4.607571
    12  C    5.013521   3.659929   3.579579   4.892800   5.947359
    13  C    7.350866   5.989686   5.741907   6.938464   8.122449
    14  C    8.722498   7.350903   7.008491   8.132331   9.372983
    15  C    7.008508   5.741945   5.835422   7.158992   8.186913
    16  C    8.132401   6.938546   7.159039   8.504907   9.481643
    17  H    8.171032   7.091839   7.514211   8.894978   9.753505
    18  C    9.372992   8.122473   8.186894   9.481575  10.552434
    19  H   10.269371   9.060135   9.200695  10.514220  11.552483
    20  C    9.643453   8.312016   8.134799   9.330925  10.516428
    21  H   10.695951   9.352961   9.114524  10.269865  11.489823
    22  H    9.157250   7.765517   7.233604   8.231007   9.539934
    23  N    5.653694   4.429170   4.693717   6.065138   6.983504
    24  H    5.329579   4.262866   4.827256   6.220497   6.966895
    25  N    3.606926   2.292155   1.388606   2.512695   3.720356
    26  H    4.536749   3.272873   2.160819   2.901300   4.252700
    27  C    2.611549   1.467576   2.324138   3.653406   4.207659
    28  C    6.242306   4.850815   4.401186   5.528556   6.761544
    29  O    3.199091   2.452526   3.528529   4.813530   5.199183
    30  O    6.453599   5.076023   4.291637   5.180598   6.518248
                    6          7          8          9         10
     6  C    0.000000
     7  H    2.163851   0.000000
     8  H    3.429819   5.008664   0.000000
     9  H    2.151756   4.303841   2.475550   0.000000
    10  H    1.083140   2.501798   4.310832   2.467762   0.000000
    11  C    4.657673   4.269361   4.149190   5.624986   5.693205
    12  C    6.009953   5.448440   5.275954   6.945629   7.035502
    13  C    8.312007   7.765511   7.091745   9.060074   9.352936
    14  C    9.643470   9.157289   8.170936  10.269316  10.695957
    15  C    8.134845   7.233655   7.514151   9.200686   9.114548
    16  C    9.331026   8.231112   8.894962  10.514263  10.269941
    17  H    9.447495   8.125996   9.394475  10.814758  10.321490
    18  C   10.516462   9.539982   9.753418  11.552451  11.489836
    19  H   11.455084  10.364657  10.814689  12.566505  12.403901
    20  C   10.666735   9.959780   9.447368  11.455007  11.692026
    21  H   11.692040  11.032592  10.321391  12.403844  12.726918
    22  H    9.959753   9.694281   8.125863  10.364555  11.032557
    23  N    6.823713   5.847133   6.557109   8.027513   7.777765
    24  H    6.604757   5.343547   6.854455   8.040899   7.480040
    25  N    4.154538   4.442298   2.839912   4.631498   5.237091
    26  H    4.920671   5.420489   2.844278   5.024797   5.998535
    27  C    3.819914   2.914903   4.488234   5.290315   4.741396
    28  C    7.074165   6.799895   5.632890   7.662684   8.139534
    29  O    4.556586   3.074008   5.693974   6.279893   5.326968
    30  O    7.068901   7.168147   5.054565   7.305005   8.151835
                   11         12         13         14         15
    11  C    0.000000
    12  C    1.358964   0.000000
    13  C    3.659897   2.338066   0.000000
    14  C    5.013529   3.718744   1.394175   0.000000
    15  C    3.579555   2.266296   1.412265   2.438867   0.000000
    16  C    4.892813   3.626373   2.441736   2.841208   1.393325
    17  H    5.275964   4.149182   3.431144   3.924826   2.165944
    18  C    5.947323   4.607527   2.764182   2.421789   2.382770
    19  H    6.945615   5.624961   3.848529   3.397066   3.366299
    20  C    6.009917   4.657639   2.395460   1.390757   2.782154
    21  H    7.035488   5.693194   3.383465   2.150529   3.865043
    22  H    5.448436   4.269377   2.150492   1.083948   3.419109
    23  N    2.439987   1.379393   2.292111   3.606939   1.388593
    24  H    2.729904   2.101417   3.272834   4.536758   2.160785
    25  N    1.379446   2.440012   4.429119   5.653661   4.693697
    26  H    2.101422   2.729863   4.262727   5.329446   4.827140
    27  C    1.492708   2.538028   4.850853   6.242390   4.401252
    28  C    2.537978   1.492680   1.467576   2.611589   2.324107
    29  O    2.414900   2.989162   5.076112   6.453747   4.291783
    30  O    2.989114   2.414923   2.452596   3.199177   3.528567
                   16         17         18         19         20
    16  C    0.000000
    17  H    1.083655   0.000000
    18  C    1.393808   2.162167   0.000000
    19  H    2.139152   2.475565   1.084422   0.000000
    20  C    2.447302   3.429845   1.403921   2.151765   0.000000
    21  H    3.418040   4.310815   2.155915   2.467700   1.083141
    22  H    3.925061   5.008703   3.414055   4.303835   2.163833
    23  N    2.512722   2.839946   3.720328   4.631503   4.154516
    24  H    2.901268   2.844240   4.252626   5.024758   4.920631
    25  N    6.065162   6.557143   6.983464   8.027494   6.823645
    26  H    6.220421   6.854390   6.966754   8.040769   6.604585
    27  C    5.528658   5.632993   6.761595   7.662771   7.074216
    28  C    3.653422   4.488236   4.207644   5.290304   3.819898
    29  O    5.180792   5.054774   6.518391   7.305199   7.069038
    30  O    4.813615   5.694046   5.199241   6.279948   4.556628
                   21         22         23         24         25
    21  H    0.000000
    22  H    2.501832   0.000000
    23  N    5.237073   4.442297   0.000000
    24  H    5.998489   5.420494   1.010894   0.000000
    25  N    7.777723   5.847071   3.723709   4.105644   0.000000
    26  H    7.479902   5.343394   4.105555   4.678639   1.010884
    27  C    8.139597   6.799956   3.042168   2.797424   2.329118
    28  C    4.741421   2.914947   2.329057   3.296325   3.042094
    29  O    8.151975   7.168262   2.915821   2.280835   3.503541
    30  O    5.327058   3.074087   3.503538   4.425679   2.915671
                   26         27         28         29         30
    26  H    0.000000
    27  C    3.296353   0.000000
    28  C    2.797281   3.936038   0.000000
    29  O    4.425648   1.227732   4.481320   0.000000
    30  O    2.280604   4.481301   1.227798   5.261815   0.000000
 Symmetry turned off by external request.
 Stoichiometry    C16H10N2O2
 Framework group  C1[X(C16H10N2O2)]
 Deg. of freedom    84
 Full point group                 C1      NOp   1
 Rotational constants (GHZ):      1.1598329      0.1735666      0.1509738
 Standard basis: 6-311++G(d,p) (5D, 7F)
 Integral buffers will be    262144 words long.
 Raffenetti 2 integral format.
 Two-electron integral symmetry is turned off.
   510 basis functions,   810 primitive gaussians,   530 cartesian basis functions
    68 alpha electrons       68 beta electrons
       nuclear repulsion energy      1379.2014924839 Hartrees.
 NAtoms=   30 NActive=   30 NUniq=   30 SFac= 7.50D-01 NAtFMM=   80 NAOKFM=F Big=F
 One-electron integrals computed using PRISM.
 NBasis=   510 RedAO= T  NBF=   510
 NBsUse=   504 1.00D-06 NBFU=   504
 Harris functional with IExCor=  402 diagonalized for initial guess.
 ExpMin= 3.60D-02 ExpMax= 8.59D+03 ExpMxC= 1.30D+03 IAcc=3 IRadAn=         0 AccDes= 0.00D+00
 HarFok:  IExCor=  402 AccDes= 0.00D+00 IRadAn=         0 IDoV= 1
 ScaDFX=  1.000000  1.000000  1.000000  1.000000
 FoFCou: FMM=F IPFlag=           0 FMFlag=      100000 FMFlg1=           0
         NFxFlg=           0 DoJE=T BraDBF=F KetDBF=T FulRan=T
         Omega=  0.000000  0.000000  1.000000  0.000000  0.000000 ICntrl=     500 IOpCl=  0
         NMat0=    1 NMatS0=    1 NMatT0=    0 NMatD0=    1 NMtDS0=    0 NMtDT0=    0
         I1Cent=           4 NGrid=           0.
 Symmetry not used in FoFCou.
 Requested convergence on RMS density matrix=1.00D-08 within 128 cycles.
 Requested convergence on MAX density matrix=1.00D-06.
 Requested convergence on             energy=1.00D-06.
 No special actions if energy rises.
 SCF Done:  E(RB3LYP) =  -875.926477108     A.U. after   16 cycles
             Convg  =    0.3706D-08             -V/T =  2.0041

 **********************************************************************

            Population analysis using the SCF density.

 **********************************************************************

 Alpha  occ. eigenvalues --  -19.12220 -19.12219 -14.36911 -14.36910 -10.27147
 Alpha  occ. eigenvalues --  -10.27147 -10.24021 -10.24020 -10.23980 -10.23910
 Alpha  occ. eigenvalues --  -10.19999 -10.19999 -10.19860 -10.19860 -10.19524
 Alpha  occ. eigenvalues --  -10.19524 -10.18984 -10.18984 -10.18640 -10.18640
 Alpha  occ. eigenvalues --   -1.05469  -1.04970  -1.00054  -0.99369  -0.87328
 Alpha  occ. eigenvalues --   -0.86770  -0.79979  -0.79034  -0.78446  -0.76248
 Alpha  occ. eigenvalues --   -0.74936  -0.71435  -0.67196  -0.63902  -0.62142
 Alpha  occ. eigenvalues --   -0.60690  -0.58288  -0.58206  -0.55298  -0.54913
 Alpha  occ. eigenvalues --   -0.52193  -0.51695  -0.49126  -0.47354  -0.46824
 Alpha  occ. eigenvalues --   -0.46792  -0.46131  -0.45710  -0.45624  -0.44597
 Alpha  occ. eigenvalues --   -0.44045  -0.44002  -0.43830  -0.39171  -0.38967
 Alpha  occ. eigenvalues --   -0.38754  -0.38526  -0.37181  -0.37125  -0.37116
 Alpha  occ. eigenvalues --   -0.35441  -0.28511  -0.28397  -0.27870  -0.27608
 Alpha  occ. eigenvalues --   -0.26557  -0.24386  -0.20834
 Alpha virt. eigenvalues --   -0.11703  -0.05814  -0.02516  -0.01053  -0.01038
 Alpha virt. eigenvalues --   -0.00766   0.00054   0.00473   0.00663   0.01179
 Alpha virt. eigenvalues --    0.02227   0.02750   0.03417   0.03494   0.04214
 Alpha virt. eigenvalues --    0.04462   0.04607   0.05434   0.05565   0.06497
 Alpha virt. eigenvalues --    0.06908   0.07381   0.07536   0.08379   0.08511
 Alpha virt. eigenvalues --    0.09226   0.09795   0.09918   0.10039   0.10161
 Alpha virt. eigenvalues --    0.10553   0.11148   0.11337   0.11391   0.11846
 Alpha virt. eigenvalues --    0.11948   0.12306   0.12682   0.12702   0.12822
 Alpha virt. eigenvalues --    0.12975   0.13115   0.13439   0.14191   0.14212
 Alpha virt. eigenvalues --    0.14791   0.14810   0.15009   0.15201   0.15864
 Alpha virt. eigenvalues --    0.15945   0.16528   0.17233   0.17702   0.18055
 Alpha virt. eigenvalues --    0.18144   0.18934   0.19601   0.19730   0.19877
 Alpha virt. eigenvalues --    0.20133   0.20553   0.20908   0.20936   0.21247
 Alpha virt. eigenvalues --    0.21472   0.21658   0.21845   0.22560   0.23290
 Alpha virt. eigenvalues --    0.23503   0.23692   0.23780   0.23931   0.24482
 Alpha virt. eigenvalues --    0.24667   0.25023   0.25728   0.26184   0.26750
 Alpha virt. eigenvalues --    0.26896   0.26943   0.27376   0.27948   0.28107
 Alpha virt. eigenvalues --    0.28177   0.29164   0.29342   0.30042   0.30833
 Alpha virt. eigenvalues --    0.30989   0.31118   0.31787   0.32139   0.32342
 Alpha virt. eigenvalues --    0.32644   0.33112   0.33284   0.33314   0.33651
 Alpha virt. eigenvalues --    0.34469   0.34754   0.35166   0.35926   0.36501
 Alpha virt. eigenvalues --    0.36629   0.37582   0.37706   0.38515   0.39582
 Alpha virt. eigenvalues --    0.40825   0.40946   0.41914   0.42289   0.43391
 Alpha virt. eigenvalues --    0.44331   0.44878   0.47137   0.49201   0.50716
 Alpha virt. eigenvalues --    0.51444   0.52226   0.53074   0.53158   0.53426
 Alpha virt. eigenvalues --    0.53485   0.54784   0.55200   0.55536   0.56306
 Alpha virt. eigenvalues --    0.56368   0.56911   0.57185   0.57370   0.57643
 Alpha virt. eigenvalues --    0.58616   0.58651   0.59045   0.59810   0.60957
 Alpha virt. eigenvalues --    0.61392   0.62052   0.63608   0.64165   0.64375
 Alpha virt. eigenvalues --    0.64760   0.65793   0.66335   0.66591   0.68575
 Alpha virt. eigenvalues --    0.68688   0.70668   0.70756   0.70783   0.71078
 Alpha virt. eigenvalues --    0.71483   0.71499   0.73098   0.74003   0.74413
 Alpha virt. eigenvalues --    0.75670   0.76669   0.77210   0.78045   0.79946
 Alpha virt. eigenvalues --    0.80046   0.82775   0.82826   0.83695   0.83869
 Alpha virt. eigenvalues --    0.85496   0.85739   0.85915   0.86541   0.86691
 Alpha virt. eigenvalues --    0.87070   0.87389   0.87399   0.88903   0.89341
 Alpha virt. eigenvalues --    0.90537   0.90899   0.92307   0.93022   0.93476
 Alpha virt. eigenvalues --    0.95766   0.96459   0.96485   0.96750   0.97026
 Alpha virt. eigenvalues --    0.98528   0.98600   0.98853   0.99307   1.00175
 Alpha virt. eigenvalues --    1.00282   1.01794   1.01882   1.03632   1.04299
 Alpha virt. eigenvalues --    1.05481   1.06463   1.07256   1.07381   1.07747
 Alpha virt. eigenvalues --    1.08324   1.09117   1.11620   1.13020   1.13515
 Alpha virt. eigenvalues --    1.14710   1.15497   1.17002   1.18163   1.18502
 Alpha virt. eigenvalues --    1.20210   1.22736   1.22773   1.23798   1.24608
 Alpha virt. eigenvalues --    1.25161   1.26817   1.31723   1.32076   1.32461
 Alpha virt. eigenvalues --    1.33138   1.35456   1.38948   1.44799   1.45543
 Alpha virt. eigenvalues --    1.47043   1.47430   1.48478   1.49927   1.50059
 Alpha virt. eigenvalues --    1.51420   1.51726   1.53158   1.53956   1.55031
 Alpha virt. eigenvalues --    1.55117   1.55132   1.57411   1.57758   1.58228
 Alpha virt. eigenvalues --    1.61543   1.62924   1.63928   1.64673   1.64895
 Alpha virt. eigenvalues --    1.65123   1.65713   1.66976   1.67533   1.72396
 Alpha virt. eigenvalues --    1.72684   1.72850   1.73444   1.73787   1.75353
 Alpha virt. eigenvalues --    1.76378   1.79389   1.79412   1.83055   1.83456
 Alpha virt. eigenvalues --    1.84499   1.84599   1.84825   1.86915   1.87919
 Alpha virt. eigenvalues --    1.88043   1.88604   1.89315   1.90820   1.92583
 Alpha virt. eigenvalues --    1.92633   1.93498   1.94177   1.94308   1.95342
 Alpha virt. eigenvalues --    1.95391   1.96304   1.97337   1.98374   1.98588
 Alpha virt. eigenvalues --    1.99282   2.02675   2.04971   2.05929   2.06003
 Alpha virt. eigenvalues --    2.06788   2.07775   2.11118   2.11284   2.11753
 Alpha virt. eigenvalues --    2.15372   2.21350   2.22520   2.23486   2.27167
 Alpha virt. eigenvalues --    2.27556   2.28650   2.30877   2.31325   2.33847
 Alpha virt. eigenvalues --    2.35421   2.41655   2.42287   2.42312   2.44691
 Alpha virt. eigenvalues --    2.46020   2.46354   2.48046   2.48489   2.49650
 Alpha virt. eigenvalues --    2.54132   2.55105   2.56485   2.60099   2.60880
 Alpha virt. eigenvalues --    2.64114   2.64399   2.65318   2.68512   2.68965
 Alpha virt. eigenvalues --    2.70409   2.70692   2.71627   2.72273   2.72460
 Alpha virt. eigenvalues --    2.73027   2.75136   2.75734   2.76840   2.78173
 Alpha virt. eigenvalues --    2.79068   2.79089   2.79719   2.80396   2.80582
 Alpha virt. eigenvalues --    2.80963   2.82845   2.83753   2.85117   2.85161
 Alpha virt. eigenvalues --    2.85951   2.86885   2.87385   2.88232   2.89329
 Alpha virt. eigenvalues --    2.92130   2.92333   2.95251   2.95719   2.96317
 Alpha virt. eigenvalues --    2.96895   2.97625   2.99394   3.01023   3.05947
 Alpha virt. eigenvalues --    3.06633   3.07292   3.12682   3.16509   3.20957
 Alpha virt. eigenvalues --    3.22104   3.24498   3.27898   3.32728   3.32917
 Alpha virt. eigenvalues --    3.34210   3.34737   3.35530   3.36285   3.39571
 Alpha virt. eigenvalues --    3.42678   3.47398   3.48364   3.50636   3.53403
 Alpha virt. eigenvalues --    3.54348   3.55061   3.60955   3.61594   3.64668
 Alpha virt. eigenvalues --    3.65413   3.66071   3.72477   3.76313   3.87275
 Alpha virt. eigenvalues --    3.88530   3.88932   3.90863   3.96924   4.02218
 Alpha virt. eigenvalues --    4.02578   4.05304   4.08430   4.10924   4.17183
 Alpha virt. eigenvalues --    4.19834   4.27656   4.33804   4.58114   4.82148
 Alpha virt. eigenvalues --    4.82454   4.90652   4.96838   5.05998   5.06359
 Alpha virt. eigenvalues --    5.11414   5.22154   5.27620   5.31406   5.78098
 Alpha virt. eigenvalues --    5.79747  23.58515  23.65771  23.75500  23.90355
 Alpha virt. eigenvalues --   23.91453  23.92995  23.93176  23.97398  23.97467
 Alpha virt. eigenvalues --   24.04960  24.05388  24.08620  24.08758  24.16012
 Alpha virt. eigenvalues --   24.17084  24.17114  35.67101  35.70459  50.05687
 Alpha virt. eigenvalues --   50.06101
          Condensed to atoms (all electrons):
              1          2          3          4          5          6
     1  C   11.868711  -1.195066  -2.565023   3.337809  -0.584403  -0.159100
     2  C   -1.195066  14.989379  -2.329067  -3.084376   0.118853  -0.062300
     3  C   -2.565023  -2.329067  17.887237   0.171769  -0.092593   0.016834
     4  C    3.337809  -3.084376   0.171769  10.668480   0.639120  -0.777681
     5  C   -0.584403   0.118853  -0.092593   0.639120   6.114660   0.324569
     6  C   -0.159100  -0.062300   0.016834  -0.777681   0.324569   6.348717
     7  H    0.549987  -0.067281   0.060466   0.078970   0.008244  -0.080530
     8  H    0.080576  -0.060529  -0.129047   0.512137  -0.052069   0.021114
     9  H   -0.070804   0.083048   0.067656  -0.146222   0.455284  -0.042522
    10  H   -0.108181   0.015382   0.015862   0.002607  -0.085727   0.455371
    11  C   -1.792992  -2.777362  -1.212540  -1.281474  -0.226025  -0.162738
    12  C   -0.462469  -1.302454   0.499989   0.076001  -0.066360  -0.087731
    13  C   -0.169737  -0.409583   1.219997   0.145352   0.012257  -0.011100
    14  C   -0.027511  -0.169791   0.224131   0.017536   0.003043  -0.000605
    15  C    0.224120   1.220292  -0.497222  -0.095865  -0.009189   0.008625
    16  C    0.017531   0.145347  -0.095915  -0.008059  -0.000769   0.001459
    17  H   -0.000623   0.002105   0.002908   0.000137  -0.000028  -0.000013
    18  C    0.003043   0.012263  -0.009175  -0.000767  -0.000047   0.000161
    19  H   -0.000018  -0.000131   0.000089  -0.000020  -0.000001   0.000003
    20  C   -0.000603  -0.011096   0.008607   0.001458   0.000161  -0.000136
    21  H    0.000021   0.000306  -0.000092  -0.000001   0.000000  -0.000001
    22  H   -0.000095   0.000382   0.001939   0.000109  -0.000008   0.000005
    23  N    0.040468   0.063052  -0.052182  -0.017442   0.001870   0.001417
    24  H   -0.004814  -0.009032  -0.009011  -0.005605  -0.001039  -0.001695
    25  N    0.138796   0.437176  -0.328658  -0.308321  -0.072886   0.063451
    26  H    0.005180   0.041272  -0.005993   0.001087  -0.005089   0.003814
    27  C   -2.603434   1.711186  -7.030960  -3.496983  -0.238291   0.462723
    28  C   -0.340086  -2.253655   0.584538   0.252200   0.028990  -0.028191
    29  O    0.047531  -0.257433   0.107711   0.037008  -0.006918  -0.035062
    30  O    0.001931   0.018313   0.043963  -0.009110  -0.000831   0.000879
              7          8          9         10         11         12
     1  C    0.549987   0.080576  -0.070804  -0.108181  -1.792992  -0.462469
     2  C   -0.067281  -0.060529   0.083048   0.015382  -2.777362  -1.302454
     3  C    0.060466  -0.129047   0.067656   0.015862  -1.212540   0.499989
     4  C    0.078970   0.512137  -0.146222   0.002607  -1.281474   0.076001
     5  C    0.008244  -0.052069   0.455284  -0.085727  -0.226025  -0.066360
     6  C   -0.080530   0.021114  -0.042522   0.455371  -0.162738  -0.087731
     7  H    0.510448   0.001352   0.000373  -0.014674  -0.060709  -0.013099
     8  H    0.001352   0.548276  -0.020000   0.002118  -0.013484   0.014473
     9  H    0.000373  -0.020000   0.529154  -0.019835  -0.010715  -0.002737
    10  H   -0.014674   0.002118  -0.019835   0.533797   0.010035   0.003908
    11  C   -0.060709  -0.013484  -0.010715   0.010035  12.590672   1.678206
    12  C   -0.013099   0.014473  -0.002737   0.003908   1.678206  12.591059
    13  C    0.000383   0.002104  -0.000131   0.000306  -1.302479  -2.777529
    14  C   -0.000095  -0.000623  -0.000018   0.000021  -0.462554  -1.792822
    15  C    0.001937   0.002910   0.000089  -0.000092   0.500083  -1.213766
    16  C    0.000109   0.000137  -0.000020  -0.000001   0.075962  -1.280965
    17  H    0.000002   0.000004  -0.000001   0.000001   0.014472  -0.013488
    18  C   -0.000008  -0.000028  -0.000001   0.000000  -0.066376  -0.226284
    19  H   -0.000001  -0.000001   0.000000   0.000000  -0.002738  -0.010722
    20  C    0.000005  -0.000013   0.000003  -0.000001  -0.087734  -0.162394
    21  H    0.000001   0.000001   0.000000   0.000000   0.003910   0.010046
    22  H    0.000002   0.000002  -0.000001   0.000001  -0.013107  -0.060748
    23  N    0.000593  -0.000431   0.000101  -0.000195  -0.166258  -0.196550
    24  H   -0.000032   0.000141  -0.000003   0.000066  -0.000931  -0.099005
    25  N   -0.003168   0.001409  -0.001783   0.000712  -0.196381  -0.166224
    26  H    0.000592   0.000277   0.000409  -0.000188  -0.098926  -0.001010
    27  C   -0.163190  -0.055658   0.000619   0.023834   1.604272  -0.322068
    28  C   -0.006839  -0.001751  -0.001423   0.001157  -0.323001   1.603626
    29  O   -0.002437   0.000627  -0.000133   0.001386  -0.038800  -0.138043
    30  O   -0.000049  -0.000446  -0.000012  -0.000007  -0.138042  -0.038742
             13         14         15         16         17         18
     1  C   -0.169737  -0.027511   0.224120   0.017531  -0.000623   0.003043
     2  C   -0.409583  -0.169791   1.220292   0.145347   0.002105   0.012263
     3  C    1.219997   0.224131  -0.497222  -0.095915   0.002908  -0.009175
     4  C    0.145352   0.017536  -0.095865  -0.008059   0.000137  -0.000767
     5  C    0.012257   0.003043  -0.009189  -0.000769  -0.000028  -0.000047
     6  C   -0.011100  -0.000605   0.008625   0.001459  -0.000013   0.000161
     7  H    0.000383  -0.000095   0.001937   0.000109   0.000002  -0.000008
     8  H    0.002104  -0.000623   0.002910   0.000137   0.000004  -0.000028
     9  H   -0.000131  -0.000018   0.000089  -0.000020  -0.000001  -0.000001
    10  H    0.000306   0.000021  -0.000092  -0.000001   0.000001   0.000000
    11  C   -1.302479  -0.462554   0.500083   0.075962   0.014472  -0.066376
    12  C   -2.777529  -1.792822  -1.213766  -1.280965  -0.013488  -0.226284
    13  C   14.985571  -1.195926  -2.325598  -3.083902  -0.060569   0.119240
    14  C   -1.195926  11.867677  -2.563429   3.337297   0.080585  -0.584102
    15  C   -2.325598  -2.563429  17.882515   0.171559  -0.129065  -0.092900
    16  C   -3.083902   3.337297   0.171559  10.667235   0.512185   0.639147
    17  H   -0.060569   0.080585  -0.129065   0.512185   0.548287  -0.052072
    18  C    0.119240  -0.584102  -0.092900   0.639147  -0.052072   6.114689
    19  H    0.083066  -0.070810   0.067671  -0.146237  -0.020002   0.455283
    20  C   -0.062408  -0.159611   0.017531  -0.777768   0.021119   0.324513
    21  H    0.015384  -0.108186   0.015881   0.002599   0.002119  -0.085749
    22  H   -0.067303   0.550055   0.060449   0.078972   0.001352   0.008260
    23  N    0.436855   0.138756  -0.328294  -0.308301   0.001408  -0.072844
    24  H    0.041346   0.005199  -0.006009   0.001091   0.000275  -0.005092
    25  N    0.063038   0.040464  -0.052163  -0.017445  -0.000431   0.001872
    26  H   -0.009012  -0.004805  -0.009037  -0.005604   0.000141  -0.001039
    27  C   -2.252875  -0.339982   0.583379   0.252123  -0.001741   0.028930
    28  C    1.711942  -2.602125  -7.030385  -3.495729  -0.055664  -0.238425
    29  O    0.018316   0.001931   0.043985  -0.009109  -0.000446  -0.000830
    30  O   -0.257548   0.047424   0.107694   0.036986   0.000627  -0.006919
             19         20         21         22         23         24
     1  C   -0.000018  -0.000603   0.000021  -0.000095   0.040468  -0.004814
     2  C   -0.000131  -0.011096   0.000306   0.000382   0.063052  -0.009032
     3  C    0.000089   0.008607  -0.000092   0.001939  -0.052182  -0.009011
     4  C   -0.000020   0.001458  -0.000001   0.000109  -0.017442  -0.005605
     5  C   -0.000001   0.000161   0.000000  -0.000008   0.001870  -0.001039
     6  C    0.000003  -0.000136  -0.000001   0.000005   0.001417  -0.001695
     7  H   -0.000001   0.000005   0.000001   0.000002   0.000593  -0.000032
     8  H   -0.000001  -0.000013   0.000001   0.000002  -0.000431   0.000141
     9  H    0.000000   0.000003   0.000000  -0.000001   0.000101  -0.000003
    10  H    0.000000  -0.000001   0.000000   0.000001  -0.000195   0.000066
    11  C   -0.002738  -0.087734   0.003910  -0.013107  -0.166258  -0.000931
    12  C   -0.010722  -0.162394   0.010046  -0.060748  -0.196550  -0.099005
    13  C    0.083066  -0.062408   0.015384  -0.067303   0.436855   0.041346
    14  C   -0.070810  -0.159611  -0.108186   0.550055   0.138756   0.005199
    15  C    0.067671   0.017531   0.015881   0.060449  -0.328294  -0.006009
    16  C   -0.146237  -0.777768   0.002599   0.078972  -0.308301   0.001091
    17  H   -0.020002   0.021119   0.002119   0.001352   0.001408   0.000275
    18  C    0.455283   0.324513  -0.085749   0.008260  -0.072844  -0.005092
    19  H    0.529155  -0.042526  -0.019836   0.000373  -0.001783   0.000409
    20  C   -0.042526   6.348610   0.455364  -0.080527   0.063420   0.003813
    21  H   -0.019836   0.455364   0.533800  -0.014676   0.000711  -0.000189
    22  H    0.000373  -0.080527  -0.014676   0.510444  -0.003166   0.000592
    23  N   -0.001783   0.063420   0.000711  -0.003166   7.012071   0.379867
    24  H    0.000409   0.003813  -0.000189   0.000592   0.379867   0.347927
    25  N    0.000101   0.001414  -0.000195   0.000593   0.029853   0.004132
    26  H   -0.000003  -0.001696   0.000066  -0.000032   0.004133  -0.000238
    27  C   -0.001424  -0.028129   0.001158  -0.006844  -0.043757  -0.007339
    28  C    0.000620   0.462650   0.023841  -0.163196   0.007119  -0.004880
    29  O   -0.000012   0.000879  -0.000007  -0.000049   0.034497   0.018232
    30  O   -0.000133  -0.035073   0.001385  -0.002440   0.009226  -0.001580
             25         26         27         28         29         30
     1  C    0.138796   0.005180  -2.603434  -0.340086   0.047531   0.001931
     2  C    0.437176   0.041272   1.711186  -2.253655  -0.257433   0.018313
     3  C   -0.328658  -0.005993  -7.030960   0.584538   0.107711   0.043963
     4  C   -0.308321   0.001087  -3.496983   0.252200   0.037008  -0.009110
     5  C   -0.072886  -0.005089  -0.238291   0.028990  -0.006918  -0.000831
     6  C    0.063451   0.003814   0.462723  -0.028191  -0.035062   0.000879
     7  H   -0.003168   0.000592  -0.163190  -0.006839  -0.002437  -0.000049
     8  H    0.001409   0.000277  -0.055658  -0.001751   0.000627  -0.000446
     9  H   -0.001783   0.000409   0.000619  -0.001423  -0.000133  -0.000012
    10  H    0.000712  -0.000188   0.023834   0.001157   0.001386  -0.000007
    11  C   -0.196381  -0.098926   1.604272  -0.323001  -0.038800  -0.138042
    12  C   -0.166224  -0.001010  -0.322068   1.603626  -0.138043  -0.038742
    13  C    0.063038  -0.009012  -2.252875   1.711942   0.018316  -0.257548
    14  C    0.040464  -0.004805  -0.339982  -2.602125   0.001931   0.047424
    15  C   -0.052163  -0.009037   0.583379  -7.030385   0.043985   0.107694
    16  C   -0.017445  -0.005604   0.252123  -3.495729  -0.009109   0.036986
    17  H   -0.000431   0.000141  -0.001741  -0.055664  -0.000446   0.000627
    18  C    0.001872  -0.001039   0.028930  -0.238425  -0.000830  -0.006919
    19  H    0.000101  -0.000003  -0.001424   0.000620  -0.000012  -0.000133
    20  C    0.001414  -0.001696  -0.028129   0.462650   0.000879  -0.035073
    21  H   -0.000195   0.000066   0.001158   0.023841  -0.000007   0.001385
    22  H    0.000593  -0.000032  -0.006844  -0.163196  -0.000049  -0.002440
    23  N    0.029853   0.004133  -0.043757   0.007119   0.034497   0.009226
    24  H    0.004132  -0.000238  -0.007339  -0.004880   0.018232  -0.001580
    25  N    7.012011   0.379828   0.007113  -0.043812   0.009215   0.034500
    26  H    0.379828   0.347936  -0.004877  -0.007247  -0.001580   0.018248
    27  C    0.007113  -0.004877  19.084150  -1.765370   0.339465   0.019341
    28  C   -0.043812  -0.007247  -1.765370  19.081294   0.019331   0.339734
    29  O    0.009215  -0.001580   0.339465   0.019331   8.129192  -0.000381
    30  O    0.034500   0.018248   0.019341   0.339734  -0.000381   8.129161
 Mulliken atomic charges:
              1
     1  C   -0.230748
     2  C    1.130798
     3  C   -0.556216
     4  C   -0.709853
     5  C   -0.264780
     6  C   -0.259738
     7  H    0.198651
     8  H    0.146425
     9  H    0.179626
    10  H    0.162337
    11  C   -0.042244
    12  C   -0.042099
    13  C    1.130541
    14  C   -0.231125
    15  C   -0.555705
    16  C   -0.709915
    17  H    0.146417
    18  C   -0.264743
    19  H    0.179628
    20  C   -0.259833
    21  H    0.162337
    22  H    0.198662
    23  N   -0.034215
    24  H    0.353404
    25  N   -0.034208
    26  H    0.353394
    27  C    0.244632
    28  C    0.244735
    29  O   -0.318064
    30  O   -0.318098
 Sum of Mulliken atomic charges =   0.00000
 Mulliken charges with hydrogens summed into heavy atoms:
              1
     1  C   -0.032097
     2  C    1.130798
     3  C   -0.556216
     4  C   -0.563428
     5  C   -0.085155
     6  C   -0.097401
    11  C   -0.042244
    12  C   -0.042099
    13  C    1.130541
    14  C   -0.032463
    15  C   -0.555705
    16  C   -0.563498
    18  C   -0.085116
    20  C   -0.097496
    23  N    0.319189
    25  N    0.319186
    27  C    0.244632
    28  C    0.244735
    29  O   -0.318064
    30  O   -0.318098
 Sum of Mulliken charges with hydrogens summed into heavy atoms =   0.00000
 Electronic spatial extent (au):  <R**2>=           6681.8452
 Charge=              0.0000 electrons
 Dipole moment (field-independent basis, Debye):
    X=              0.0002    Y=              0.0007    Z=              0.0065  Tot=              0.0066
 Quadrupole moment (field-independent basis, Debye-Ang):
   XX=            -87.6622   YY=           -116.0540   ZZ=           -119.8859
   XY=             10.0873   XZ=             -0.0119   YZ=             -0.0107
 Traceless Quadrupole moment (field-independent basis, Debye-Ang):
   XX=             20.2052   YY=             -8.1866   ZZ=            -12.0185
   XY=             10.0873   XZ=             -0.0119   YZ=             -0.0107
 Octapole moment (field-independent basis, Debye-Ang**2):
  XXX=              0.0040  YYY=              0.0034  ZZZ=             -0.0416  XYY=              0.0007
  XXY=              0.0012  XXZ=              0.1819  XZZ=             -0.0006  YZZ=              0.0011
  YYZ=              0.0312  XYZ=             -0.0192
 Hexadecapole moment (field-independent basis, Debye-Ang**3):
 XXXX=          -6911.4272 YYYY=          -1252.7773 ZZZZ=           -134.5136 XXXY=             25.4575
 XXXZ=             -0.1979 YYYX=             88.3783 YYYZ=             -0.0278 ZZZX=              0.0190
 ZZZY=             -0.0199 XXYY=          -1368.4567 XXZZ=          -1512.3447 YYZZ=           -237.9508
 XXYZ=              0.0128 YYXZ=             -0.0540 ZZXY=            -10.1194
 N-N= 1.379201492484D+03 E-N=-4.798527325849D+03  KE= 8.723367187037D+02
 Calling FoFJK, ICntrl=      2127 FMM=F ISym2X=0 I1Cent= 0 IOpClX= 0 NMat=1 NMatS=1 NMatT=0.
 -------------------------------------------------------------------
 Center     Atomic                   Forces (Hartrees/Bohr)
 Number     Number              X              Y              Z
 -------------------------------------------------------------------
      1        6           0.000006745    0.000009830    0.000002254
      2        6          -0.000011898   -0.000053224   -0.000015254
      3        6           0.000031844    0.000029563   -0.000019460
      4        6          -0.000019624   -0.000011403    0.000011268
      5        6           0.000020883   -0.000008059    0.000001754
      6        6           0.000003099    0.000006076    0.000001148
      7        1          -0.000012017    0.000007685   -0.000001086
      8        1          -0.000005849   -0.000006067   -0.000001837
      9        1          -0.000012380   -0.000008744   -0.000001451
     10        1          -0.000011970    0.000003084   -0.000000115
     11        6          -0.000006333   -0.000023743    0.000010121
     12        6          -0.000024656   -0.000005198   -0.000009637
     13        6           0.000028523    0.000015124    0.000002703
     14        6          -0.000043848    0.000000496    0.000004156
     15        6          -0.000009834   -0.000011110   -0.000007133
     16        6          -0.000012848    0.000000096    0.000001510
     17        1           0.000005561    0.000008794    0.000001026
     18        6          -0.000000810   -0.000019260   -0.000005111
     19        1           0.000010274    0.000010660    0.000001324
     20        6           0.000013305    0.000025096    0.000000818
     21        1           0.000009836   -0.000006473   -0.000000103
     22        1           0.000011456   -0.000008315   -0.000001164
     23        7           0.000006739    0.000024638   -0.000002952
     24        1           0.000003625   -0.000003267    0.000012272
     25        7           0.000008425    0.000032351    0.000066889
     26        1          -0.000003214   -0.000008425   -0.000040814
     27        6          -0.000003909   -0.000021529   -0.000007746
     28        6          -0.000012058   -0.000056420   -0.000003332
     29        8           0.000020994    0.000052487   -0.000002053
     30        8           0.000009941    0.000025259    0.000002003
 -------------------------------------------------------------------
 Cartesian Forces:  Max     0.000066889 RMS     0.000018321

 GradGradGradGradGradGradGradGradGradGradGradGradGradGradGradGradGradGrad
 Berny optimization.
 Internal  Forces:  Max     0.000056753 RMS     0.000008741
 Search for a local minimum.
 Step number   1 out of a maximum of  180
 All quantities printed in internal units (Hartrees-Bohrs-Radians)
 Mixed Optimization -- En-DIIS/RFO-DIIS
 Second derivative matrix not updated -- first step.
     Eigenvalues ---    0.01037   0.01037   0.01386   0.01386   0.01741
     Eigenvalues ---    0.01741   0.01855   0.01855   0.01897   0.01897
     Eigenvalues ---    0.01929   0.01929   0.02003   0.02003   0.02091
     Eigenvalues ---    0.02091   0.02120   0.02120   0.02133   0.02133
     Eigenvalues ---    0.02174   0.02174   0.02182   0.02182   0.02190
     Eigenvalues ---    0.02190   0.02632   0.15999   0.16000   0.16000
     Eigenvalues ---    0.16000   0.16000   0.16000   0.16000   0.16000
     Eigenvalues ---    0.16000   0.16000   0.22000   0.22000   0.22589
     Eigenvalues ---    0.22589   0.23725   0.23725   0.24558   0.24558
     Eigenvalues ---    0.25000   0.25000   0.25000   0.25000   0.25000
     Eigenvalues ---    0.25000   0.32068   0.32070   0.34594   0.34594
     Eigenvalues ---    0.35465   0.35465   0.35521   0.35521   0.35556
     Eigenvalues ---    0.35556   0.35618   0.35618   0.38839   0.38841
     Eigenvalues ---    0.42606   0.42607   0.43853   0.43857   0.45471
     Eigenvalues ---    0.45474   0.45823   0.45825   0.46148   0.46151
     Eigenvalues ---    0.46632   0.46632   0.46995   0.46996   0.47767
     Eigenvalues ---    0.47775   0.53158   0.92010   0.920381000.00000
     Eigenvalues --- 1000.000001000.000001000.000001000.000001000.00000
     Eigenvalues --- 1000.000001000.000001000.000001000.000001000.00000
     Eigenvalues --- 1000.000001000.000001000.000001000.000001000.00000
     Eigenvalues --- 1000.000001000.000001000.000001000.000001000.00000
     Eigenvalues --- 1000.000001000.000001000.000001000.000001000.00000
     Eigenvalues --- 1000.000001000.000001000.000001000.000001000.00000
     Eigenvalues --- 1000.000001000.000001000.000001000.000001000.00000
     Eigenvalues --- 1000.000001000.000001000.000001000.000001000.00000
     Eigenvalues --- 1000.000001000.000001000.000001000.000001000.00000
     Eigenvalues --- 1000.000001000.000001000.000001000.000001000.00000
     Eigenvalues --- 1000.000001000.000001000.000001000.000001000.00000
     Eigenvalues --- 1000.000001000.000001000.000001000.000001000.00000
     Eigenvalues --- 1000.000001000.000001000.000001000.000001000.00000
     Eigenvalues --- 1000.000001000.000001000.000001000.000001000.00000
     Eigenvalues --- 1000.000001000.000001000.000001000.000001000.00000
     Eigenvalues --- 1000.000001000.000001000.000001000.000001000.00000
     Eigenvalues --- 1000.000001000.000001000.000001000.000001000.00000
     Eigenvalues --- 1000.00000
 RFO step:  Lambda=-1.04653978D-07 EMin= 1.03676094D-02
 Linear search not attempted -- first point.
 Iteration  1 RMS(Cart)=  0.00027536 RMS(Int)=  0.00000004
 Iteration  2 RMS(Cart)=  0.00000006 RMS(Int)=  0.00000002
 Variable       Old X    -DE/DX   Delta X   Delta X   Delta X     New X
                                 (Linear)    (Quad)   (Total)
    R1        2.63452   0.00002   0.00000   0.00004   0.00004   2.63456
    R2        2.62822   0.00001   0.00000   0.00001   0.00001   2.62823
    R3        2.04837   0.00001   0.00000   0.00003   0.00003   2.04840
    R4        2.66885  -0.00002   0.00000  -0.00004  -0.00004   2.66881
    R5        2.77332   0.00002   0.00000   0.00007   0.00007   2.77339
    R6        2.63293   0.00003   0.00000   0.00006   0.00006   2.63299
    R7        2.62409  -0.00001   0.00000  -0.00002  -0.00002   2.62406
    R8        2.63399  -0.00001   0.00000  -0.00001  -0.00001   2.63397
    R9        2.04782   0.00001   0.00000   0.00001   0.00001   2.04783
   R10        2.65294   0.00001   0.00000   0.00003   0.00003   2.65297
   R11        2.04926   0.00001   0.00000   0.00004   0.00004   2.04930
   R12        2.04684   0.00001   0.00000   0.00003   0.00003   2.04687
   R13        2.56807   0.00000   0.00000  -0.00001  -0.00001   2.56806
   R14        2.60677  -0.00002   0.00000  -0.00005  -0.00005   2.60673
   R15        2.82081   0.00001   0.00000   0.00004   0.00004   2.82085
   R16        2.60668   0.00002   0.00000   0.00004   0.00004   2.60671
   R17        2.82076   0.00002   0.00000   0.00007   0.00007   2.82083
   R18        2.63461  -0.00001   0.00000  -0.00002  -0.00002   2.63459
   R19        2.66879   0.00000   0.00000  -0.00001  -0.00001   2.66879
   R20        2.77332   0.00002   0.00000   0.00005   0.00005   2.77337
   R21        2.62815   0.00002   0.00000   0.00005   0.00005   2.62820
   R22        2.04837   0.00001   0.00000   0.00003   0.00003   2.04839
   R23        2.63300   0.00001   0.00000   0.00001   0.00001   2.63302
   R24        2.62406   0.00000   0.00000  -0.00001  -0.00001   2.62405
   R25        2.04781   0.00001   0.00000   0.00002   0.00002   2.04783
   R26        2.63392   0.00001   0.00000   0.00002   0.00002   2.63394
   R27        2.04926   0.00001   0.00000   0.00004   0.00004   2.04930
   R28        2.65303  -0.00001   0.00000  -0.00002  -0.00002   2.65301
   R29        2.04684   0.00001   0.00000   0.00003   0.00003   2.04687
   R30        1.91031   0.00000   0.00000  -0.00001  -0.00001   1.91030
   R31        1.91029   0.00001   0.00000   0.00001   0.00001   1.91031
   R32        2.32008   0.00006   0.00000   0.00006   0.00006   2.32014
   R33        2.32020  -0.00003   0.00000  -0.00003  -0.00003   2.32017
    A1        2.07116   0.00000   0.00000  -0.00002  -0.00002   2.07114
    A2        2.09238   0.00001   0.00000   0.00008   0.00008   2.09246
    A3        2.11964  -0.00001   0.00000  -0.00006  -0.00006   2.11958
    A4        2.10642   0.00001   0.00000   0.00002   0.00002   2.10644
    A5        2.29883   0.00000   0.00000  -0.00002  -0.00002   2.29881
    A6        1.87794   0.00000   0.00000   0.00000   0.00000   1.87794
    A7        2.11163   0.00000   0.00000   0.00000   0.00000   2.11163
    A8        1.91707   0.00000   0.00000   0.00001   0.00001   1.91707
    A9        2.25449   0.00000   0.00000  -0.00001  -0.00001   2.25448
   A10        2.05081   0.00000   0.00000  -0.00001  -0.00001   2.05080
   A11        2.11973   0.00001   0.00000   0.00005   0.00005   2.11978
   A12        2.11264  -0.00001   0.00000  -0.00004  -0.00004   2.11261
   A13        2.12980   0.00000   0.00000   0.00001   0.00001   2.12981
   A14        2.07379   0.00000   0.00000   0.00000   0.00000   2.07379
   A15        2.07960   0.00000   0.00000  -0.00001  -0.00001   2.07959
   A16        2.09655   0.00000   0.00000   0.00000   0.00000   2.09655
   A17        2.09857   0.00000   0.00000   0.00001   0.00001   2.09858
   A18        2.08807   0.00000   0.00000  -0.00001  -0.00001   2.08806
   A19        2.19920   0.00000   0.00000  -0.00001  -0.00001   2.19919
   A20        2.19362   0.00000   0.00000   0.00001   0.00001   2.19363
   A21        1.89036   0.00000   0.00000   0.00001   0.00001   1.89037
   A22        2.19924  -0.00001   0.00000  -0.00003  -0.00003   2.19921
   A23        2.19358   0.00001   0.00000   0.00003   0.00003   2.19361
   A24        1.89036   0.00000   0.00000   0.00000   0.00000   1.89036
   A25        2.10643   0.00000   0.00000   0.00001   0.00001   2.10644
   A26        2.29883   0.00000   0.00000  -0.00001  -0.00001   2.29881
   A27        1.87793   0.00000   0.00000   0.00001   0.00001   1.87793
   A28        2.07113   0.00000   0.00000   0.00001   0.00001   2.07113
   A29        2.09238   0.00001   0.00000   0.00006   0.00006   2.09245
   A30        2.11967  -0.00001   0.00000  -0.00007  -0.00007   2.11960
   A31        2.11164   0.00000   0.00000  -0.00001  -0.00001   2.11163
   A32        1.91705   0.00001   0.00000   0.00002   0.00002   1.91708
   A33        2.25449  -0.00001   0.00000  -0.00002  -0.00002   2.25447
   A34        2.11973   0.00001   0.00000   0.00004   0.00004   2.11977
   A35        2.05079   0.00000   0.00000   0.00001   0.00001   2.05079
   A36        2.11267  -0.00001   0.00000  -0.00005  -0.00005   2.11262
   A37        2.07382   0.00000   0.00000  -0.00001  -0.00001   2.07381
   A38        2.12981   0.00000   0.00000   0.00000   0.00000   2.12981
   A39        2.07955   0.00000   0.00000   0.00002   0.00002   2.07956
   A40        2.09657   0.00000   0.00000  -0.00001  -0.00001   2.09656
   A41        2.09861   0.00000   0.00000  -0.00001  -0.00001   2.09860
   A42        2.08800   0.00000   0.00000   0.00002   0.00002   2.08803
   A43        1.91846   0.00000   0.00000  -0.00001  -0.00001   1.91846
   A44        2.13500   0.00000   0.00000   0.00002   0.00002   2.13502
   A45        2.22972   0.00000   0.00000  -0.00001  -0.00001   2.22971
   A46        1.91844   0.00001   0.00000   0.00002   0.00002   1.91846
   A47        2.22978  -0.00001   0.00000  -0.00004  -0.00004   2.22973
   A48        2.13494   0.00000   0.00000   0.00003   0.00003   2.13497
   A49        1.82098  -0.00001   0.00000  -0.00004  -0.00004   1.82094
   A50        2.28257   0.00001   0.00000   0.00003   0.00003   2.28260
   A51        2.17964   0.00000   0.00000   0.00001   0.00001   2.17964
   A52        1.82097  -0.00001   0.00000  -0.00003  -0.00003   1.82094
   A53        2.17962   0.00000   0.00000   0.00002   0.00002   2.17964
   A54        2.28259   0.00000   0.00000   0.00001   0.00001   2.28260
    D1        0.00025   0.00000   0.00000   0.00000   0.00000   0.00024
    D2       -3.14155   0.00000   0.00000   0.00006   0.00006  -3.14149
    D3       -3.14150   0.00000   0.00000   0.00001   0.00001  -3.14149
    D4       -0.00011   0.00000   0.00000   0.00007   0.00007  -0.00003
    D5       -0.00009   0.00000   0.00000  -0.00001  -0.00001  -0.00009
    D6        3.14147   0.00000   0.00000   0.00002   0.00002   3.14149
    D7       -3.14152   0.00000   0.00000  -0.00002  -0.00002  -3.14154
    D8        0.00004   0.00000   0.00000   0.00001   0.00001   0.00004
    D9       -0.00021   0.00000   0.00000   0.00001   0.00001  -0.00020
   D10        3.14075   0.00000   0.00000   0.00000   0.00000   3.14076
   D11        3.14154   0.00000   0.00000  -0.00004  -0.00004   3.14150
   D12       -0.00068   0.00000   0.00000  -0.00004  -0.00004  -0.00073
   D13        3.14145   0.00000   0.00000   0.00003   0.00003   3.14148
   D14        0.00013   0.00000   0.00000  -0.00020  -0.00020  -0.00007
   D15       -0.00032   0.00000   0.00000   0.00008   0.00008  -0.00024
   D16        3.14155   0.00000   0.00000  -0.00015  -0.00015   3.14140
   D17        0.00001   0.00000   0.00000  -0.00001  -0.00001   0.00000
   D18       -3.14158   0.00000   0.00000  -0.00005  -0.00005   3.14155
   D19       -3.14082   0.00000   0.00000   0.00000   0.00000  -3.14082
   D20        0.00077   0.00000   0.00000  -0.00005  -0.00005   0.00073
   D21        0.00151   0.00000   0.00000  -0.00002  -0.00002   0.00150
   D22        3.13478   0.00002   0.00000   0.00097   0.00097   3.13575
   D23       -3.14078   0.00000   0.00000  -0.00003  -0.00003  -3.14080
   D24       -0.00751   0.00002   0.00000   0.00096   0.00096  -0.00655
   D25        0.00016   0.00000   0.00000   0.00000   0.00000   0.00015
   D26       -3.14148   0.00000   0.00000  -0.00004  -0.00004  -3.14153
   D27       -3.14144   0.00000   0.00000   0.00004   0.00004  -3.14140
   D28        0.00011   0.00000   0.00000   0.00000   0.00000   0.00011
   D29       -0.00012   0.00000   0.00000   0.00001   0.00001  -0.00011
   D30        3.14151   0.00000   0.00000  -0.00002  -0.00002   3.14149
   D31        3.14152   0.00000   0.00000   0.00005   0.00005   3.14158
   D32       -0.00004   0.00000   0.00000   0.00003   0.00003  -0.00001
   D33        3.14130   0.00000   0.00000   0.00011   0.00011   3.14141
   D34       -0.00103   0.00000   0.00000   0.00001   0.00001  -0.00102
   D35       -0.00166   0.00001   0.00000   0.00045   0.00045  -0.00121
   D36        3.13919   0.00001   0.00000   0.00035   0.00035   3.13954
   D37        3.13872   0.00001   0.00000   0.00036   0.00036   3.13908
   D38        0.00492  -0.00001   0.00000  -0.00056  -0.00056   0.00436
   D39       -0.00170   0.00000   0.00000   0.00007   0.00007  -0.00162
   D40       -3.13550  -0.00002   0.00000  -0.00085  -0.00085  -3.13635
   D41       -3.13920  -0.00001   0.00000  -0.00039  -0.00039  -3.13958
   D42        0.00214   0.00000   0.00000  -0.00017  -0.00017   0.00197
   D43        0.00122   0.00000   0.00000  -0.00010  -0.00010   0.00113
   D44       -3.14063   0.00000   0.00000   0.00012   0.00012  -3.14051
   D45        3.14106   0.00000   0.00000   0.00008   0.00008   3.14114
   D46       -0.00077   0.00000   0.00000   0.00022   0.00022  -0.00055
   D47        0.00010   0.00000   0.00000   0.00016   0.00016   0.00027
   D48        3.14146   0.00001   0.00000   0.00030   0.00030  -3.14142
   D49       -3.14109   0.00000   0.00000  -0.00003  -0.00003  -3.14112
   D50        0.00022   0.00000   0.00000  -0.00008  -0.00008   0.00014
   D51       -0.00013   0.00000   0.00000  -0.00011  -0.00011  -0.00024
   D52        3.14118   0.00000   0.00000  -0.00017  -0.00017   3.14102
   D53        0.00003   0.00000   0.00000  -0.00004  -0.00004  -0.00002
   D54        3.14158   0.00000   0.00000   0.00001   0.00001  -3.14159
   D55       -3.14155   0.00000   0.00000  -0.00002  -0.00002  -3.14157
   D56        0.00001   0.00000   0.00000   0.00004   0.00004   0.00004
   D57        0.00000   0.00000   0.00000  -0.00001  -0.00001  -0.00001
   D58        3.14155   0.00000   0.00000   0.00009   0.00009  -3.14154
   D59        3.14158   0.00000   0.00000  -0.00003  -0.00003   3.14155
   D60       -0.00005   0.00000   0.00000   0.00007   0.00007   0.00002
   D61       -3.14150   0.00000   0.00000   0.00000   0.00000  -3.14150
   D62        0.00040   0.00000   0.00000   0.00006   0.00006   0.00046
   D63        0.00011   0.00000   0.00000   0.00002   0.00002   0.00013
   D64       -3.14118   0.00000   0.00000   0.00008   0.00008  -3.14110
   D65       -0.00002   0.00000   0.00000   0.00003   0.00003   0.00001
   D66        3.14157   0.00000   0.00000   0.00003   0.00003  -3.14159
   D67       -3.14158   0.00000   0.00000  -0.00002  -0.00002   3.14159
   D68        0.00001   0.00000   0.00000  -0.00003  -0.00003  -0.00001
   D69        3.14156   0.00000   0.00000   0.00007   0.00007  -3.14156
   D70       -0.00003   0.00000   0.00000   0.00007   0.00007   0.00004
   D71        0.00002   0.00000   0.00000  -0.00006  -0.00006  -0.00004
   D72       -3.14157   0.00000   0.00000  -0.00005  -0.00005   3.14156
   D73       -0.00003   0.00000   0.00000  -0.00015  -0.00015  -0.00018
   D74       -3.14137  -0.00001   0.00000  -0.00030  -0.00030   3.14152
   D75        3.14151   0.00000   0.00000  -0.00003  -0.00003   3.14148
   D76        0.00017   0.00000   0.00000  -0.00018  -0.00018  -0.00001
   D77        3.14159   0.00000   0.00000   0.00000   0.00000   3.14159
   D78        0.00004   0.00000   0.00000  -0.00008  -0.00008  -0.00005
   D79        0.00000   0.00000   0.00000   0.00001   0.00001   0.00001
   D80       -3.14156   0.00000   0.00000  -0.00008  -0.00008   3.14155
   D81       -0.00001   0.00000   0.00000   0.00003   0.00003   0.00002
   D82        3.14158   0.00000   0.00000   0.00004   0.00004  -3.14157
   D83       -3.14156   0.00000   0.00000  -0.00006  -0.00006   3.14157
   D84        0.00003   0.00000   0.00000  -0.00005  -0.00005  -0.00002
         Item               Value     Threshold  Converged?
 Maximum Force            0.000057     0.000450     YES
 RMS     Force            0.000009     0.000300     YES
 Maximum Displacement     0.001524     0.001800     YES
 RMS     Displacement     0.000275     0.001200     YES
 Predicted change in Energy=-5.232810D-08
 Optimization completed.
    -- Stationary point found.
                           ----------------------------
                           !   Optimized Parameters   !
                           ! (Angstroms and Degrees)  !
 --------------------------                            --------------------------
 ! Name  Definition              Value          Derivative Info.                !
 --------------------------------------------------------------------------------
 ! R1    R(1,2)                  1.3941         -DE/DX =    0.0                 !
 ! R2    R(1,6)                  1.3908         -DE/DX =    0.0                 !
 ! R3    R(1,7)                  1.084          -DE/DX =    0.0                 !
 ! R4    R(2,3)                  1.4123         -DE/DX =    0.0                 !
 ! R5    R(2,27)                 1.4676         -DE/DX =    0.0                 !
 ! R6    R(3,4)                  1.3933         -DE/DX =    0.0                 !
 ! R7    R(3,25)                 1.3886         -DE/DX =    0.0                 !
 ! R8    R(4,5)                  1.3938         -DE/DX =    0.0                 !
 ! R9    R(4,8)                  1.0837         -DE/DX =    0.0                 !
 ! R10   R(5,6)                  1.4039         -DE/DX =    0.0                 !
 ! R11   R(5,9)                  1.0844         -DE/DX =    0.0                 !
 ! R12   R(6,10)                 1.0831         -DE/DX =    0.0                 !
 ! R13   R(11,12)                1.359          -DE/DX =    0.0                 !
 ! R14   R(11,25)                1.3794         -DE/DX =    0.0                 !
 ! R15   R(11,27)                1.4927         -DE/DX =    0.0                 !
 ! R16   R(12,23)                1.3794         -DE/DX =    0.0                 !
 ! R17   R(12,28)                1.4927         -DE/DX =    0.0                 !
 ! R18   R(13,14)                1.3942         -DE/DX =    0.0                 !
 ! R19   R(13,15)                1.4123         -DE/DX =    0.0                 !
 ! R20   R(13,28)                1.4676         -DE/DX =    0.0                 !
 ! R21   R(14,20)                1.3908         -DE/DX =    0.0                 !
 ! R22   R(14,22)                1.0839         -DE/DX =    0.0                 !
 ! R23   R(15,16)                1.3933         -DE/DX =    0.0                 !
 ! R24   R(15,23)                1.3886         -DE/DX =    0.0                 !
 ! R25   R(16,17)                1.0837         -DE/DX =    0.0                 !
 ! R26   R(16,18)                1.3938         -DE/DX =    0.0                 !
 ! R27   R(18,19)                1.0844         -DE/DX =    0.0                 !
 ! R28   R(18,20)                1.4039         -DE/DX =    0.0                 !
 ! R29   R(20,21)                1.0831         -DE/DX =    0.0                 !
 ! R30   R(23,24)                1.0109         -DE/DX =    0.0                 !
 ! R31   R(25,26)                1.0109         -DE/DX =    0.0                 !
 ! R32   R(27,29)                1.2277         -DE/DX =    0.0001              !
 ! R33   R(28,30)                1.2278         -DE/DX =    0.0                 !
 ! A1    A(2,1,6)              118.6688         -DE/DX =    0.0                 !
 ! A2    A(2,1,7)              119.8846         -DE/DX =    0.0                 !
 ! A3    A(6,1,7)              121.4467         -DE/DX =    0.0                 !
 ! A4    A(1,2,3)              120.6888         -DE/DX =    0.0                 !
 ! A5    A(1,2,27)             131.7134         -DE/DX =    0.0                 !
 ! A6    A(3,2,27)             107.5978         -DE/DX =    0.0                 !
 ! A7    A(2,3,4)              120.9877         -DE/DX =    0.0                 !
 ! A8    A(2,3,25)             109.8398         -DE/DX =    0.0                 !
 ! A9    A(4,3,25)             129.1725         -DE/DX =    0.0                 !
 ! A10   A(3,4,5)              117.5028         -DE/DX =    0.0                 !
 ! A11   A(3,4,8)              121.4516         -DE/DX =    0.0                 !
 ! A12   A(5,4,8)              121.0456         -DE/DX =    0.0                 !
 ! A13   A(4,5,6)              122.0283         -DE/DX =    0.0                 !
 ! A14   A(4,5,9)              118.8194         -DE/DX =    0.0                 !
 ! A15   A(6,5,9)              119.1522         -DE/DX =    0.0                 !
 ! A16   A(1,6,5)              120.1236         -DE/DX =    0.0                 !
 ! A17   A(1,6,10)             120.239          -DE/DX =    0.0                 !
 ! A18   A(5,6,10)             119.6374         -DE/DX =    0.0                 !
 ! A19   A(12,11,25)           126.005          -DE/DX =    0.0                 !
 ! A20   A(12,11,27)           125.6854         -DE/DX =    0.0                 !
 ! A21   A(25,11,27)           108.3096         -DE/DX =    0.0                 !
 ! A22   A(11,12,23)           126.007          -DE/DX =    0.0                 !
 ! A23   A(11,12,28)           125.6832         -DE/DX =    0.0                 !
 ! A24   A(23,12,28)           108.3098         -DE/DX =    0.0                 !
 ! A25   A(14,13,15)           120.6897         -DE/DX =    0.0                 !
 ! A26   A(14,13,28)           131.713          -DE/DX =    0.0                 !
 ! A27   A(15,13,28)           107.5973         -DE/DX =    0.0                 !
 ! A28   A(13,14,20)           118.6668         -DE/DX =    0.0                 !
 ! A29   A(13,14,22)           119.8848         -DE/DX =    0.0                 !
[...]
 .00000010,0.12410271,-0.39883742,0.00032673,-0.12976664,0.41410813,0.0
 0000087,0.00000009,-0.00003509,0.00000061,-0.00000175,0.00101247,-0.00
 000088,0.00000060,-0.00017035,0.00000031,0.00000002,-0.00001645,-0.000
 00027,0.00000034,0.00005917,-0.00000027,-0.00000069,-0.00010106,0.0000
 0013,0.,0.00005912,0.,-0.00000007,0.00001192,-0.00000004,-0.00000003,-
 0.00001129,0.,0.00000001,0.00001658,-0.00000358,0.00000118,-0.00081072
 ,0.00002236,-0.00002443,-0.00317283,-0.00000660,0.00000017,0.00240274,
 -0.00000103,0.00000235,0.00136101,0.00001167,0.00002068,-0.00751845,0.
 00000259,-0.00000079,-0.00104993,-0.00000093,-0.00000067,0.00008038,-0
 .00000030,0.00000019,-0.00027083,0.00000004,-0.00000002,0.00007508,0.0
 0000030,-0.00000039,-0.00004415,-0.00000009,-0.00000004,0.00007760,-0.
 00000033,-0.00000007,-0.00008483,-0.00020373,0.00034166,0.00007496,0.0
 0018521,-0.00033596,0.00969849,0.00142347,-0.00289248,-0.00001837,-0.0
 1515010,0.04194995,0.00007021,-0.25929081,0.05003449,0.00058416,-0.043
 36701,0.00664843,0.00012235,0.00710939,-0.00652079,-0.00000438,-0.0058
 3472,0.00637015,0.00000971,-0.00027979,0.00023543,0.00000231,0.0022591
 4,0.00034031,-0.00000336,-0.00093456,0.00034737,-0.00000068,0.00008255
 ,0.00010070,0.00000113,-0.16843027,-0.08084171,-0.00023100,-0.04295688
 ,-0.02638436,-0.00006085,0.00242336,-0.00009168,0.00000897,-0.00061009
 ,-0.00077878,-0.00000163,0.00675999,-0.00457735,0.00001012,-0.00449867
 ,0.00034046,-0.00000505,-0.00012069,-0.00026474,0.00000064,0.00099624,
 -0.00292339,0.00000135,-0.00017849,-0.00008342,-0.00000019,0.00063518,
 0.00142207,-0.00000009,-0.00024084,0.00005640,0.00000004,0.00010301,0.
 00010249,0.00000031,-0.01304206,-0.00401560,-0.00000996,-0.00300843,0.
 00111536,0.00000037,0.65330863,-0.01156754,-0.00578246,0.00000867,0.05
 098803,-0.03081425,-0.00014502,0.05228669,-0.14840362,0.00003294,-0.02
 543499,0.01964083,0.00006471,-0.00035795,-0.00850946,-0.00000597,0.003
 66159,0.00566367,0.00000148,0.00159707,-0.00076263,-0.00000429,0.00106
 785,0.00162177,-0.00000522,-0.00138090,0.00066584,0.00000017,0.0000342
 8,0.00033762,-0.00000223,-0.07278697,-0.24550968,-0.00014637,-0.029022
 85,0.02193461,-0.00000208,0.00347808,0.00133828,-0.00000362,-0.0016264
 7,-0.00045985,-0.00000226,0.00674191,-0.00210540,0.00000559,-0.0032590
 9,-0.00021806,-0.00000031,-0.00008048,-0.00013378,0.00000002,0.0011528
 9,-0.00250686,0.00000114,-0.00003671,-0.00007991,-0.00000003,0.0008871
 2,0.00179530,0.00000095,-0.00013849,0.00004156,-0.00000012,0.00000171,
 0.00005072,-0.00000056,-0.00401789,-0.00676202,-0.00000701,-0.00141389
 ,0.00027359,0.00000049,-0.10542076,0.86295375,-0.00001747,0.00003115,0
 .00232408,0.00001014,-0.00017396,0.01137719,0.00023191,0.00013558,-0.0
 4103609,0.00010510,0.00002067,0.00421451,-0.00001687,0.00000182,0.0050
 6325,0.00003372,-0.00001086,-0.00092653,-0.00000332,0.00000114,0.00015
 979,-0.00000222,-0.00000023,-0.00276892,-0.00000147,0.00000086,0.00034
 902,-0.00000194,0.00000086,-0.00034595,0.00001497,0.00018327,-0.039005
 22,-0.00011320,0.00002195,-0.00007072,0.00001500,0.00000387,0.00131011
 ,-0.00000412,0.00000020,-0.00014667,0.00000153,-0.00000325,0.00174649,
 -0.00000109,0.00000036,-0.00056650,-0.00000013,-0.00000037,0.00004383,
 -0.00000003,-0.00000444,-0.00030934,0.,-0.00000006,0.00012415,0.000002
 66,0.00000260,-0.00011618,-0.00000030,0.00000016,0.00004444,-0.0000002
 8,0.00000004,0.00002768,-0.00000192,-0.00000501,0.00684189,-0.00000179
 ,-0.00000107,-0.00037293,0.00016673,-0.00176174,0.04873569,0.00028978,
 0.00128251,0.00000957,-0.00418104,-0.00047211,0.00000507,0.00009025,0.
 02545157,-0.00014369,0.00140352,0.00020500,0.00000536,-0.00020357,-0.0
 0018377,0.00000716,0.00027946,-0.00005928,-0.00000239,-0.00035924,0.00
 008246,0.00000104,-0.00062489,-0.00086770,-0.00000429,0.00000959,-0.00
 002118,-0.00000031,-0.00002460,-0.00007084,-0.00000095,0.01850403,-0.0
 1522181,0.00009762,-0.00324247,0.00458897,0.00001052,0.00258306,0.0018
 9835,-0.00000549,-0.00130433,0.00012782,-0.00000129,0.00283389,-0.0012
 6286,0.00000391,-0.00107476,0.00000313,0.00000041,0.00002337,0.0000413
 1,0.00000005,0.00060792,-0.00088609,0.00000079,0.00000626,-0.00000565,
 -0.00000004,0.00046486,0.00106200,0.00000051,0.00002469,0.00002134,-0.
 00000003,-0.00010579,-0.00001955,-0.00000036,-0.00300955,-0.00141412,-
 0.00000851,-0.00008312,0.00016108,0.00000012,-0.12074806,0.12601978,-0
 .00054807,0.10635737,0.00016975,0.00002120,0.00000241,-0.00094199,0.00
 327541,0.00001783,0.00343079,0.00333286,-0.00005153,-0.00068073,0.0013
 6341,-0.00000188,0.00023160,-0.00055711,-0.00000652,-0.00046664,0.0003
 6404,0.00000102,-0.00010687,0.00006985,-0.00000041,0.00022970,-0.00042
 571,0.00000382,-0.00009053,0.00002111,0.00000025,-0.00000532,-0.000019
 15,0.00000151,0.00731962,-0.01954677,0.00007780,0.00284475,-0.00141151
 ,-0.00001567,-0.00084937,-0.00079732,0.00000703,0.00045211,0.00004963,
 0.00000012,-0.00104982,0.00061000,-0.00000406,0.00046365,-0.00006654,0
 .00000037,-0.00000633,-0.00000015,-0.00000013,-0.00018383,0.00040888,-
 0.00000007,0.00000756,0.00000548,-0.00000019,-0.00016441,-0.00039936,0
 .00000013,0.00001375,-0.00000621,0.00000002,0.00002675,-0.00000146,0.0
 0000030,0.00111595,0.00027374,-0.00000428,0.00016104,-0.00004890,0.000
 00050,0.12413415,-0.39883168,0.00161544,-0.12979601,0.41410306,0.00000
 764,-0.00002135,0.00136087,0.00005247,0.00002482,0.00240243,0.00008582
 ,-0.00020565,-0.00751953,-0.00002529,-0.00000720,-0.00104965,0.0000042
 9,0.00000214,-0.00027072,-0.00001282,0.00000091,-0.00004420,0.00000384
 ,-0.00000208,-0.00008491,-0.00000396,0.00000195,0.00008029,0.00000123,
 -0.00000042,0.00007507,0.00000070,-0.00000044,0.00007765,-0.00000008,-
 0.00013472,-0.00317161,0.00003615,-0.00001513,-0.00081078,-0.00000928,
 -0.00000277,0.00101273,0.00000227,-0.00000008,-0.00003505,-0.00000832,
 0.00000422,-0.00017026,0.00000348,-0.00000008,-0.00001642,0.00000003,0
 .00000013,0.00001191,-0.00000121,0.00000299,0.00005915,0.00000003,0.00
 000009,-0.00001128,-0.00000102,-0.00000225,-0.00010107,0.00000017,-0.0
 0000013,0.00001657,0.00000007,0.00000007,0.00005910,0.00001025,0.00001
 091,-0.00037289,0.00000226,-0.00000082,0.00009815,-0.00068599,0.002028
 56,0.00007324,0.00059028,-0.00166639,0.00970146,-0.04538271,-0.0060397
 2,0.00006609,-0.17859708,-0.02549785,0.00011648,0.02864369,-0.03795442
 ,-0.00007803,-0.00982875,-0.00028802,0.00002736,0.00909159,-0.01106172
 ,-0.00002035,0.00787475,0.02083133,0.00001007,0.00129613,-0.00169993,-
 0.00001257,0.00070238,0.00135444,0.00000146,0.00020518,-0.00017676,-0.
 00000208,0.00036717,-0.00023422,-0.00000113,-0.14024633,0.06231784,0.0
 0007149,-0.02158495,0.01594147,0.00000295,-0.00098642,-0.00022827,0.00
 000213,0.00015020,-0.00010996,0.00000053,-0.00823995,0.00193852,-0.000
 01004,0.00312313,0.00024929,0.00000294,-0.00008214,-0.00001531,-0.0000
 0012,-0.00119748,0.00150686,-0.00000165,0.00011310,0.00004283,0.000000
 23,-0.00011379,-0.00110427,-0.00000087,0.00007365,-0.00006671,0.000000
 30,0.00003948,-0.00006708,0.00000014,0.00902725,0.00490806,0.00001508,
 -0.00328474,-0.00166373,0.00000326,-0.00770351,-0.01113499,0.00013167,
 -0.00350155,-0.00556952,-0.00004565,0.52084512,-0.00204695,0.01943741,
 0.00000905,0.01102040,-0.10762079,-0.00004729,-0.02691335,-0.03514017,
 0.00002950,-0.00147655,-0.00727500,-0.00000894,0.00329095,-0.00675417,
 -0.00000769,0.01133794,0.00488446,-0.00001453,0.00119355,-0.00114282,-
 0.00000289,-0.00170775,-0.00061118,0.00000151,0.00010479,-0.00017075,0
 .00000038,0.00134646,0.00089536,-0.00000193,-0.00443925,-0.10692545,-0
 .00000020,0.03090752,0.03658294,-0.00001294,0.00303015,0.00255261,0.00
 000605,-0.00276327,-0.00160773,-0.00000391,0.01094612,-0.00571746,0.00
 001515,-0.00599621,0.00008360,-0.00000650,-0.00023416,-0.00028027,0.00
 000067,0.00244875,-0.00347037,0.00000272,-0.00018496,-0.00012456,-0.00
 000005,0.00072496,0.00324639,-0.00000022,-0.00022876,0.00001205,-0.000
 00003,0.00017728,0.00004932,0.00000009,-0.01697478,-0.02482035,-0.0000
 1403,-0.01410343,0.00506054,0.00000380,-0.00392784,-0.05575953,-0.0000
 1739,-0.00448364,0.00041404,-0.00002465,0.16118457,0.84703683,0.000064
 45,0.00001578,-0.00087647,0.00014965,0.00003116,-0.07094241,-0.0000568
 8,0.00001381,0.00198725,0.00002635,-0.00000619,0.00479482,-0.00001501,
 0.00002004,-0.00069550,-0.00000160,-0.00003413,0.00670357,-0.00000635,
 0.00000313,-0.00402690,-0.00000122,-0.00000088,-0.00002871,-0.00000243
 ,0.00000010,-0.00078949,0.00000268,-0.00000015,0.00110816,0.00009981,-
 0.00013431,-0.07507287,-0.00000372,0.00002729,0.00677105,0.00000243,0.
 00000135,-0.00283203,-0.00000055,-0.00000040,0.00067029,0.00000173,-0.
 00000154,-0.00040411,-0.00000012,0.00000109,0.00015172,0.00000003,0.00
 000029,-0.00005463,0.,-0.00000017,0.00027667,-0.00000028,-0.00000013,-
 0.00005819,-0.00000091,0.00000058,0.00005257,-0.00000019,-0.00000010,-
 0.00009436,-0.00000007,0.00000013,-0.00011166,0.00000083,0.00000066,-0
 .00344814,0.00000259,0.00000301,-0.00021217,0.00003410,-0.00006015,0.0
 0484925,-0.00000808,0.00002651,0.00094369,-0.00030258,0.00015628,0.185
 13058,0.00014959,-0.00010959,0.00000060,-0.00098725,-0.00022754,0.0000
 0618,-0.00823880,0.00193760,0.00001702,0.00312299,0.00024926,-0.000006
 69,-0.00119750,0.00150677,0.00000312,-0.00011346,-0.00110450,-0.000000
 81,0.00003951,-0.00006712,0.00000049,-0.00008212,-0.00001577,-0.000000
 27,0.00011331,0.00004293,-0.00000011,0.00007343,-0.00006649,-0.0000001
 5,-0.02158560,0.01594431,-0.00001596,-0.14025208,0.06233844,-0.0000914
 2,-0.17859615,-0.02549094,-0.00009713,-0.04538067,-0.00603796,-0.00004
 650,0.02864072,-0.03796440,0.00004308,-0.00982755,-0.00028859,-0.00001
 499,0.00070229,0.00135377,-0.00000006,0.00909056,-0.01106285,0.0000125
 4,0.00020581,-0.00017650,0.00000107,0.00787610,0.02083066,-0.00000310,
 0.00036655,-0.00023387,-0.00000048,0.00129623,-0.00169980,0.00000629,-
 0.00770729,-0.01113186,-0.00001840,-0.00350164,-0.00556981,-0.00000687
 ,0.00902506,0.00490724,-0.00000481,-0.00328584,-0.00166395,0.00000357,
 -0.00572589,0.00145182,-0.00001982,0.52085768,-0.00276405,-0.00160832,
 0.00000464,0.00303155,0.00255023,-0.00000761,0.01094718,-0.00571754,-0
 .00000482,-0.00599667,0.00008221,0.00001365,0.00245103,-0.00346742,-0.
 00000703,0.00072400,0.00324807,0.00000250,0.00017721,0.00005070,-0.000
 00149,-0.00023425,-0.00027965,0.00000107,-0.00018721,-0.00012623,-0.00
 000005,-0.00022774,0.00001177,-0.00000031,0.03091516,0.03658029,0.0000
 7016,-0.00442395,-0.10695650,-0.00001675,0.01102568,-0.10761999,0.0000
 3522,-0.00204454,0.01943692,-0.00001339,-0.02691507,-0.03514094,-0.000
 01769,-0.00147432,-0.00727494,0.00000184,-0.00170792,-0.00060990,-0.00
 000118,0.00329056,-0.00675469,0.00000451,0.00010399,-0.00017109,-0.000
 00006,0.01133835,0.00488277,0.00001173,0.00134583,0.00089556,0.0000024
 4,0.00119335,-0.00114251,0.00000116,-0.00393097,-0.05576942,0.00002325
 ,-0.00448316,0.00041358,-0.00000195,-0.01697202,-0.02482475,-0.0000751
 8,-0.01410805,0.00506311,0.00003272,0.00145213,-0.01008757,0.00000495,
 0.16107784,0.84679491,-0.00000032,-0.00000120,0.00067034,-0.00000465,0
 .00000579,-0.00283161,-0.00000377,0.00000535,-0.00040410,0.00000336,-0
 .00000106,0.00015161,0.00000042,0.00000072,0.00027670,-0.00000097,-0.0
 0000009,0.00005263,0.00000007,-0.00000034,-0.00011172,0.00000012,-0.00
 000039,-0.00005465,0.00000111,0.00000079,-0.00005819,-0.00000077,0.000
 00031,-0.00009440,0.00000472,-0.00000302,0.00677057,-0.00010195,0.0000
 8187,-0.07507068,-0.00011650,-0.00001365,-0.07094137,-0.00003804,-0.00
 001554,-0.00087728,0.00003153,-0.00002055,0.00198810,-0.00001251,0.000
 00401,0.00479518,0.00000120,0.00000130,-0.00002879,0.00000737,-0.00000
 757,-0.00069556,0.00000121,-0.00000012,-0.00078930,-0.00000549,0.00002
 170,0.00670191,-0.00000110,-0.00000052,0.00110827,0.00000442,-0.000002
 47,-0.00402563,0.00000493,0.00001082,0.00485217,-0.00000193,-0.0000079
 1,0.00094321,0.00000162,0.00000478,-0.00344761,0.00000662,0.00000743,-
 0.00021244,-0.00001883,0.00000117,0.00849035,0.00022124,-0.00021977,0.
 18515077,0.01016595,-0.00006878,-0.00001736,-0.01781076,-0.05221439,0.
 00002607,-0.01893041,0.00669824,0.00004064,0.00421694,-0.00172235,-0.0
 0001005,-0.00239871,0.00311925,0.00000539,-0.00180524,-0.00506623,-0.0
 0000148,0.00036739,0.00064822,0.00000144,-0.00063850,-0.00064692,0.000
 00008,-0.00010194,-0.00000652,0.00000041,-0.00019556,-0.00002411,0.000
 00072,0.03353956,0.00128901,-0.00001299,-0.00705692,-0.00947738,0.0000
 0468,-0.00248801,0.00009355,-0.00000406,0.00133680,0.00052183,0.000001
 30,0.00009113,0.00288659,-0.00000021,0.00104599,-0.00003984,0.00000117
 ,0.00013050,0.00007121,-0.00000011,-0.00055476,0.00079868,-0.00000043,
 -0.00003132,0.00003071,-0.00000014,-0.00049585,-0.00092752,-0.00000021
 ,-0.00000027,0.00001054,-0.00000007,-0.00012702,0.00005708,-0.00000009
 ,-0.00234281,0.00813879,0.00000132,0.00672958,-0.00014530,-0.00000349,
 0.00461554,0.00671210,-0.00003153,0.00153891,0.00112068,0.00001286,-0.
 15542637,-0.15542848,0.00003379,0.00034931,0.00174216,0.00000212,0.146
 93737,0.01294101,-0.00451880,-0.00002075,-0.05127201,-0.02686771,0.000
 05760,-0.00777360,0.00855272,0.00002376,0.00246310,0.00049850,-0.00000
 305,-0.00190573,0.00459542,0.00000525,-0.00598208,-0.00537954,0.000004
 82,-0.00153946,0.00129063,0.00000498,0.00000569,-0.00022928,0.00000049
 ,-0.00017219,0.00018617,0.00000014,-0.00042643,-0.00020206,0.00000055,
 0.02153760,-0.07276579,-0.00005723,-0.01664688,-0.01824436,-0.00000336
 ,-0.00201032,-0.00082587,-0.00000145,0.00153466,0.00094248,0.00000108,
 -0.00643730,0.00319292,-0.00000859,0.00383336,-0.00027910,0.00000374,0
 .00019575,0.00025842,-0.00000033,-0.00140511,0.00235666,-0.00000185,0.
 00014254,0.00007828,0.00000008,-0.00055312,-0.00191687,0.00000019,0.00
 015773,-0.00001334,0.00000015,-0.00012463,-0.00003731,0.00000008,0.011
 56669,0.01753483,0.00001853,0.00892729,-0.00603759,-0.00000225,0.01093
 218,-0.00239093,-0.00000814,-0.00100230,-0.00122321,-0.00000448,-0.164
 18905,-0.56078091,-0.00006704,-0.00462535,0.00803328,-0.00001170,0.192
 70589,0.66005505,-0.00001159,-0.00000122,-0.00084522,0.00002182,0.0000
 4451,0.01530031,0.00002313,0.00000058,0.00318144,-0.00000763,0.0000023
 1,-0.00093524,0.00000420,-0.00000463,-0.00000100,0.00000080,0.00000766
 ,-0.00077365,-0.00000114,-0.00000007,0.00031078,0.00000054,0.00000051,
 -0.00006154,0.00000028,-0.00000004,0.00013915,-0.00000006,-0.00000006,
 -0.00004308,-0.00001970,-0.00004570,0.01550069,-0.00000548,-0.00000139
 ,-0.00083496,-0.00000077,-0.00000084,0.00033303,0.00000107,0.00000003,
 -0.00007753,-0.00000493,0.00000026,0.00064182,0.00000149,-0.00000012,0
 .00006096,0.00000006,0.00000006,-0.00001872,-0.00000069,0.00000093,-0.
 00005609,0.00000011,0.,-0.00000923,-0.00000013,-0.00000099,-0.00001014
 ,-0.00000002,0.00000004,0.00000401,0.00000006,-0.00000008,-0.00000666,
 0.00000896,0.00000646,0.00054005,-0.00000313,-0.00000158,-0.00297256,0
 .00000910,-0.00000518,0.00128816,-0.00000521,-0.00000520,0.00087227,0.
 00003490,-0.00006127,-0.06126116,0.00000256,-0.00000066,-0.00102158,-0
 .00004840,0.00006653,0.03075235,0.00133755,0.00052192,-0.00000143,-0.0
 0248852,0.00009352,0.00000393,0.00009019,0.00288770,-0.00001335,0.0010
 4720,-0.00003993,-0.00000247,-0.00055516,0.00079907,0.00000223,-0.0004
 9641,-0.00092817,-0.00000039,-0.00012707,0.00005717,0.00000050,0.00013
 049,0.00007158,-0.00000049,-0.00003153,0.00003060,0.,-0.00000033,0.000
 01050,0.00000016,-0.00706042,-0.00947912,-0.00002026,0.03353979,0.0012
 8153,0.00001823,-0.01781149,-0.05220902,-0.00000633,0.01016514,-0.0000
 6885,0.00001282,-0.01893020,0.00670036,-0.00002450,0.00421684,-0.00172
 221,0.00000496,-0.00063851,-0.00064648,-0.00000044,-0.00239806,0.00312
 021,-0.00000279,-0.00010255,-0.00000686,-0.00000014,-0.00180597,-0.005
 06595,-0.00000123,-0.00019522,-0.00002428,-0.00000012,0.00036727,0.000
 64842,-0.00000003,0.00461765,0.00671014,0.00000222,0.00153849,0.001120
 79,0.00000058,-0.00234659,0.00814363,0.00003711,0.00673184,-0.00014653
 ,-0.00002378,0.00034882,0.00174412,0.00000135,-0.15542728,-0.15534609,
 0.00001477,-0.00066053,-0.00087795,-0.00000018,0.14694456,0.00153536,0
 .00094284,-0.00000193,-0.00201033,-0.00082493,0.00000491,-0.00643762,0
 .00319204,0.00000559,0.00383358,-0.00027834,-0.00000866,-0.00140608,0.
 00235521,0.00000447,-0.00055302,-0.00191779,-0.00000159,-0.00012458,-0
 .00003787,0.00000105,0.00019577,0.00025822,-0.00000052,0.00014358,0.00
 007907,-0.00000014,0.00015709,-0.00001317,0.00000008,-0.01664918,-0.01
 824309,-0.00003666,0.02153391,-0.07275876,0.00007277,-0.05126594,-0.02
 686134,-0.00002764,0.01293880,-0.00451855,0.00001672,-0.00777273,0.008
 55416,-0.00000852,0.00246210,0.00049859,0.00000146,0.00000572,-0.00022
 944,-0.00000035,-0.00190532,0.00459582,-0.00000279,-0.00017223,0.00018
 610,-0.00000004,-0.00598220,-0.00537850,-0.00000570,-0.00042574,-0.000
 20232,-0.00000089,-0.00153941,0.00129047,-0.00000157,0.01093247,-0.002
 39209,0.00000892,-0.00100255,-0.00122224,-0.00000298,0.01156500,0.0175
 3735,0.00004173,0.00892962,-0.00604076,-0.00002086,-0.00462582,0.00803
 353,-0.00000094,-0.16410372,-0.56049195,0.00015984,-0.00087669,-0.0058
 6270,-0.00000087,0.19262017,0.65975043,0.00000114,0.00000026,-0.000077
 54,-0.00000271,-0.00000053,0.00033281,0.00000081,0.00000183,0.00064216
 ,0.00000007,0.00000020,0.00006104,-0.00000065,0.00000013,-0.00005611,-
 0.00000026,-0.00000091,-0.00001015,-0.00000004,0.00000020,-0.00000668,
 -0.00000010,-0.00000003,-0.00001872,-0.00000034,-0.00000013,-0.0000092
 3,0.00000009,-0.00000013,0.00000400,-0.00000315,0.00000044,-0.00083438
 ,0.00002113,0.00005274,0.01549758,-0.00000390,-0.00002428,0.01529652,0
 .00000225,0.00000233,-0.00084532,-0.00001408,0.00000124,0.00318144,0.0
 0000258,-0.00000172,-0.00093509,-0.00000038,-0.00000038,-0.00006152,-0
 .00000088,0.,-0.00000107,-0.00000015,-0.00000007,0.00013916,0.00000271
 ,-0.00000212,-0.00077331,0.00000010,0.00000015,-0.00004306,0.00000081,
 -0.00000015,0.00031051,-0.00000848,0.00000782,0.00128796,0.00000114,0.
 00000293,0.00087276,-0.00000168,0.00000266,0.00053988,-0.00001033,-0.0
 0000614,-0.00297376,0.00000683,-0.00000190,-0.00102115,0.00000979,0.00
 015814,-0.06128689,-0.00000140,0.00000227,0.00000334,-0.00000093,-0.00
 019489,0.03078482||-0.00000675,-0.00000983,-0.00000225,0.00001189,0.00
 005323,0.00001525,-0.00003182,-0.00002956,0.00001946,0.00001962,0.0000
 1140,-0.00001127,-0.00002089,0.00000806,-0.00000175,-0.00000310,-0.000
 00608,-0.00000115,0.00001202,-0.00000769,0.00000109,0.00000585,0.00000
 607,0.00000184,0.00001238,0.00000874,0.00000145,0.00001197,-0.00000308
 ,0.00000012,0.00000631,0.00002373,-0.00001012,0.00002466,0.00000521,0.
 00000964,-0.00002852,-0.00001514,-0.00000270,0.00004385,-0.00000050,-0
 .00000416,0.00000982,0.00001111,0.00000713,0.00001286,-0.00000008,-0.0
 0000151,-0.00000556,-0.00000879,-0.00000103,0.00000082,0.00001925,0.00
 000511,-0.00001028,-0.00001066,-0.00000132,-0.00001331,-0.00002509,-0.
 00000082,-0.00000984,0.00000647,0.00000010,-0.00001146,0.00000832,0.00
 000116,-0.00000674,-0.00002464,0.00000295,-0.00000362,0.00000327,-0.00
 001227,-0.00000842,-0.00003235,-0.00006689,0.00000321,0.00000843,0.000
 04081,0.00000391,0.00002152,0.00000775,0.00001206,0.00005641,0.0000033
 3,-0.00002099,-0.00005248,0.00000205,-0.00000994,-0.00002526,-0.000002
 00|||@


 I CLAIM NOT TO HAVE CONTROLLED EVENTS,
 BUT CONFESS PLAINLY THAT EVENTS HAVE CONTROLLED ME.

                                         A. LINCOLN
 Job cpu time:  0 days  7 hours 51 minutes 37.0 seconds.
 File lengths (MBytes):  RWF=    758 Int=      0 D2E=      0 Chk=     17 Scr=      1
 Normal termination of Gaussian 09 at Sun Jan 26 19:07:09 2020.
